<?xml version="1.0" encoding="UTF-8"?>

<!-- generated on 2026-02-07 23:25:26 by Eclipse SUMO sumo Version 1.22.0
<sumoConfiguration xmlns:xsi="http://www.w3.org/2001/XMLSchema-instance" xsi:noNamespaceSchemaLocation="http://sumo.dlr.de/xsd/sumoConfiguration.xsd">

    <input>
        <net-file value="./res/hangzhou/4_Phase.net.xml"/>
        <route-files value="./res/hangzhou/uniform_4200.rou.xml"/>
    </input>

    <output>
        <queue-output value="./queues.xml"/>
        <queue-output.period value="3.0"/>
        <tripinfo-output value="./tripinfos.xml"/>
    </output>

    <time>
        <begin value="0"/>
        <end value="1800"/>
    </time>

    <processing>
        <threads value="10"/>
    </processing>

    <routing>
        <routing-algorithm value="astar"/>
    </routing>

    <report>
        <duration-log.statistics value="true"/>
    </report>

    <emissions>
        <device.emissions.probability value="1.0"/>
    </emissions>

    <traci_server>
        <remote-port value="56273"/>
    </traci_server>

    <random_number>
        <seed value="25"/>
    </random_number>

</sumoConfiguration>
-->

<tripinfos xmlns:xsi="http://www.w3.org/2001/XMLSchema-instance" xsi:noNamespaceSchemaLocation="http://sumo.dlr.de/xsd/tripinfo_file.xsd">
    <tripinfo id="1.10" depart="21.00" departLane="road_5_1_2_0" departPos="5.10" departSpeed="0.00" departDelay="1.00" arrival="190.00" arrivalLane="road_4_1_3_0" arrivalPos="586.40" arrivalSpeed="10.32" duration="169.00" routeLength="1397.55" waitingTime="25.00" waitingCount="1" stopTime="0.00" timeLoss="40.80" rerouteNo="0" devices="tripinfo_1.10 emissions_1.10" vType="DEFAULT_VEHTYPE" speedFactor="0.99" vaporized="">
        <emissions CO_abs="8390.701978" CO2_abs="372522.680707" HC_abs="46.699847" PMx_abs="5.626080" NOx_abs="146.150652" fuel_abs="118820.397238" electricity_abs="0"/>
    </tripinfo>
    <tripinfo id="1.15" depart="30.00" departLane="road_5_1_2_0" departPos="5.10" departSpeed="0.00" departDelay="0.00" arrival="201.00" arrivalLane="road_4_1_3_0" arrivalPos="586.40" arrivalSpeed="8.79" duration="171.00" routeLength="1397.55" waitingTime="8.00" waitingCount="1" stopTime="0.00" timeLoss="24.36" rerouteNo="0" devices="tripinfo_1.15 emissions_1.15" vType="DEFAULT_VEHTYPE@1.15" speedFactor="0.86" vaporized="">
        <emissions CO_abs="6980.915331" CO2_abs="347386.946724" HC_abs="39.644629" PMx_abs="4.865148" NOx_abs="134.913168" fuel_abs="110802.874850" electricity_abs="0"/>
    </tripinfo>
    <tripinfo id="1.17" depart="34.00" departLane="road_2_0_1_0" departPos="5.10" departSpeed="0.00" departDelay="0.00" arrival="230.00" arrivalLane="road_3_1_3_0" arrivalPos="586.40" arrivalSpeed="9.91" duration="196.00" routeLength="1958.56" waitingTime="0.00" waitingCount="0" stopTime="0.00" timeLoss="14.22" rerouteNo="0" devices="tripinfo_1.17 emissions_1.17" vType="DEFAULT_VEHTYPE" speedFactor="0.98" vaporized="">
        <emissions CO_abs="5522.322178" CO2_abs="431975.421176" HC_abs="34.937212" PMx_abs="5.557470" NOx_abs="162.921967" fuel_abs="137781.989621" electricity_abs="0"/>
    </tripinfo>
    <tripinfo id="1.7" depart="14.00" departLane="road_4_0_1_0" departPos="5.10" departSpeed="0.00" departDelay="0.00" arrival="232.00" arrivalLane="road_3_1_3_1" arrivalPos="586.40" arrivalSpeed="10.57" duration="218.00" routeLength="2000.20" waitingTime="14.00" waitingCount="1" stopTime="0.00" timeLoss="33.19" rerouteNo="2" devices="tripinfo_1.7 emissions_1.7" vType="DEFAULT_VEHTYPE@1.7" speedFactor="0.98" vaporized="">
        <emissions CO_abs="8163.238810" CO2_abs="463109.278245" HC_abs="47.713454" PMx_abs="6.575298" NOx_abs="178.901144" fuel_abs="147713.088988" electricity_abs="0"/>
    </tripinfo>
    <tripinfo id="1.4" depart="8.00" departLane="road_2_0_1_0" departPos="5.10" departSpeed="0.00" departDelay="0.00" arrival="255.00" arrivalLane="road_1_1_2_0" arrivalPos="786.40" arrivalSpeed="9.72" duration="247.00" routeLength="2195.01" waitingTime="19.00" waitingCount="2" stopTime="0.00" timeLoss="43.60" rerouteNo="0" devices="tripinfo_1.4 emissions_1.4" vType="DEFAULT_VEHTYPE" speedFactor="0.97" vaporized="">
        <emissions CO_abs="10132.927445" CO2_abs="535467.865376" HC_abs="58.343934" PMx_abs="7.772300" NOx_abs="208.185794" fuel_abs="170792.761628" electricity_abs="0"/>
    </tripinfo>
    <tripinfo id="1.22" depart="44.00" departLane="road_0_2_0_0" departPos="5.10" departSpeed="0.00" departDelay="0.00" arrival="256.00" arrivalLane="road_1_3_2_0" arrivalPos="786.40" arrivalSpeed="10.91" duration="212.00" routeLength="2194.86" waitingTime="0.00" waitingCount="0" stopTime="0.00" timeLoss="14.36" rerouteNo="0" devices="tripinfo_1.22 emissions_1.22" vType="DEFAULT_VEHTYPE" speedFactor="1.00" vaporized="">
        <emissions CO_abs="5132.217217" CO2_abs="447047.654740" HC_abs="33.477922" PMx_abs="5.486038" NOx_abs="166.218804" fuel_abs="142589.384040" electricity_abs="0"/>
    </tripinfo>
    <tripinfo id="1.13" depart="26.00" departLane="road_0_2_0_0" departPos="5.10" departSpeed="0.00" departDelay="0.00" arrival="261.00" arrivalLane="road_1_1_3_0" arrivalPos="586.40" arrivalSpeed="8.63" duration="235.00" routeLength="1976.90" waitingTime="11.00" waitingCount="1" stopTime="0.00" timeLoss="33.36" rerouteNo="2" devices="tripinfo_1.13 emissions_1.13" vType="DEFAULT_VEHTYPE@1.13" speedFactor="0.89" vaporized="">
        <emissions CO_abs="9332.843843" CO2_abs="485449.447968" HC_abs="53.481235" PMx_abs="6.726985" NOx_abs="187.705962" fuel_abs="154839.264413" electricity_abs="0"/>
    </tripinfo>
    <tripinfo id="1.44" depart="88.00" departLane="road_0_2_0_0" departPos="5.10" departSpeed="0.00" departDelay="0.00" arrival="277.00" arrivalLane="road_1_1_2_0" arrivalPos="786.40" arrivalSpeed="11.63" duration="189.00" routeLength="2158.56" waitingTime="0.00" waitingCount="0" stopTime="0.00" timeLoss="13.54" rerouteNo="2" devices="tripinfo_1.44 emissions_1.44" vType="DEFAULT_VEHTYPE@1.44" speedFactor="1.12" vaporized="">
        <emissions CO_abs="4275.777249" CO2_abs="444681.500081" HC_abs="28.973656" PMx_abs="5.558824" NOx_abs="163.863402" fuel_abs="141834.143276" electricity_abs="0"/>
    </tripinfo>
    <tripinfo id="1.25" depart="50.00" departLane="road_1_5_3_0" departPos="5.10" departSpeed="0.00" departDelay="0.00" arrival="282.00" arrivalLane="road_1_3_2_0" arrivalPos="786.40" arrivalSpeed="12.15" duration="232.00" routeLength="1976.90" waitingTime="60.00" waitingCount="1" stopTime="0.00" timeLoss="79.59" rerouteNo="2" devices="tripinfo_1.25 emissions_1.25" vType="DEFAULT_VEHTYPE@1.25" speedFactor="1.18" vaporized="">
        <emissions CO_abs="14345.936743" CO2_abs="578383.788269" HC_abs="78.128307" PMx_abs="9.581995" NOx_abs="229.586661" fuel_abs="184482.198189" electricity_abs="0"/>
    </tripinfo>
    <tripinfo id="1.49" depart="99.00" departLane="road_5_4_2_0" departPos="5.10" departSpeed="0.00" departDelay="1.00" arrival="284.00" arrivalLane="road_4_3_0_0" arrivalPos="786.40" arrivalSpeed="12.95" duration="185.00" routeLength="2194.86" waitingTime="0.00" waitingCount="0" stopTime="0.00" timeLoss="20.20" rerouteNo="0" devices="tripinfo_1.49 emissions_1.49" vType="DEFAULT_VEHTYPE" speedFactor="1.20" vaporized="">
        <emissions CO_abs="4111.463672" CO2_abs="433615.927706" HC_abs="27.685342" PMx_abs="5.516947" NOx_abs="159.157874" fuel_abs="138304.562922" electricity_abs="0"/>
    </tripinfo>
    <tripinfo id="1.65" depart="130.00" departLane="road_1_0_1_0" departPos="5.10" departSpeed="0.00" departDelay="0.00" arrival="287.00" arrivalLane="road_1_1_2_0" arrivalPos="786.40" arrivalSpeed="11.43" duration="157.00" routeLength="1397.55" waitingTime="28.00" waitingCount="1" stopTime="0.00" timeLoss="40.63" rerouteNo="0" devices="tripinfo_1.65 emissions_1.65" vType="DEFAULT_VEHTYPE" speedFactor="1.09" vaporized="">
        <emissions CO_abs="8293.956507" CO2_abs="378986.438173" HC_abs="46.418853" PMx_abs="6.060826" NOx_abs="149.983527" fuel_abs="120881.618415" electricity_abs="0"/>
    </tripinfo>
    <tripinfo id="1.41" depart="82.00" departLane="road_3_5_3_0" departPos="5.10" departSpeed="0.00" departDelay="0.00" arrival="292.00" arrivalLane="road_4_4_0_0" arrivalPos="786.40" arrivalSpeed="11.03" duration="210.00" routeLength="2195.01" waitingTime="9.00" waitingCount="1" stopTime="0.00" timeLoss="26.26" rerouteNo="0" devices="tripinfo_1.41 emissions_1.41" vType="DEFAULT_VEHTYPE" speedFactor="1.08" vaporized="">
        <emissions CO_abs="6454.070055" CO2_abs="473699.712211" HC_abs="40.071185" PMx_abs="6.278575" NOx_abs="178.188793" fuel_abs="151090.448076" electricity_abs="0"/>
    </tripinfo>
    <tripinfo id="1.74" depart="148.00" departLane="road_0_4_0_0" departPos="5.10" departSpeed="0.00" departDelay="0.00" arrival="317.00" arrivalLane="road_1_4_1_0" arrivalPos="586.40" arrivalSpeed="9.52" duration="169.00" routeLength="1397.55" waitingTime="12.00" waitingCount="1" stopTime="0.00" timeLoss="33.20" rerouteNo="0" devices="tripinfo_1.74 emissions_1.74" vType="DEFAULT_VEHTYPE" speedFactor="0.93" vaporized="">
        <emissions CO_abs="7413.387841" CO2_abs="361990.040466" HC_abs="41.977011" PMx_abs="5.221864" NOx_abs="140.779436" fuel_abs="115460.677514" electricity_abs="0"/>
    </tripinfo>
    <tripinfo id="1.73" depart="146.00" departLane="road_3_0_1_0" departPos="5.10" departSpeed="0.00" departDelay="0.00" arrival="325.00" arrivalLane="road_4_1_3_0" arrivalPos="586.40" arrivalSpeed="11.44" duration="179.00" routeLength="1958.56" waitingTime="0.00" waitingCount="0" stopTime="0.00" timeLoss="14.53" rerouteNo="2" devices="tripinfo_1.73 emissions_1.73" vType="DEFAULT_VEHTYPE@1.73" speedFactor="1.08" vaporized="">
        <emissions CO_abs="4574.888083" CO2_abs="413198.430501" HC_abs="30.044490" PMx_abs="5.398847" NOx_abs="154.886823" fuel_abs="131792.481176" electricity_abs="0"/>
    </tripinfo>
    <tripinfo id="1.21" depart="42.00" departLane="road_0_4_0_0" departPos="5.10" departSpeed="0.00" departDelay="0.00" arrival="328.00" arrivalLane="road_1_4_1_0" arrivalPos="586.40" arrivalSpeed="7.63" duration="286.00" routeLength="1397.55" waitingTime="101.00" waitingCount="1" stopTime="0.00" timeLoss="120.73" rerouteNo="0" devices="tripinfo_1.21 emissions_1.21" vType="DEFAULT_VEHTYPE" speedFactor="0.76" vaporized="">
        <emissions CO_abs="24047.323549" CO2_abs="619745.428881" HC_abs="123.674443" PMx_abs="11.369174" NOx_abs="258.490398" fuel_abs="197678.877182" electricity_abs="0"/>
    </tripinfo>
    <tripinfo id="1.47" depart="94.00" departLane="road_0_2_0_0" departPos="5.10" departSpeed="0.00" departDelay="0.00" arrival="333.00" arrivalLane="road_2_1_3_0" arrivalPos="586.40" arrivalSpeed="12.12" duration="239.00" routeLength="2766.75" waitingTime="0.00" waitingCount="0" stopTime="0.00" timeLoss="25.14" rerouteNo="0" devices="tripinfo_1.47 emissions_1.47" vType="DEFAULT_VEHTYPE" speedFactor="1.17" vaporized="">
        <emissions CO_abs="5564.442377" CO2_abs="560621.056685" HC_abs="37.384758" PMx_abs="7.245579" NOx_abs="207.810334" fuel_abs="178813.688432" electricity_abs="0"/>
    </tripinfo>
    <tripinfo id="1.53" depart="106.00" departLane="road_0_2_0_0" departPos="5.10" departSpeed="0.00" departDelay="0.00" arrival="336.00" arrivalLane="road_2_1_3_0" arrivalPos="586.40" arrivalSpeed="12.25" duration="230.00" routeLength="2766.75" waitingTime="0.00" waitingCount="0" stopTime="0.00" timeLoss="17.75" rerouteNo="0" devices="tripinfo_1.53 emissions_1.53" vType="DEFAULT_VEHTYPE" speedFactor="1.18" vaporized="">
        <emissions CO_abs="4590.785813" CO2_abs="532348.426353" HC_abs="32.065254" PMx_abs="6.547854" NOx_abs="194.221388" fuel_abs="169795.936600" electricity_abs="0"/>
    </tripinfo>
    <tripinfo id="1.79" depart="158.00" departLane="road_0_4_0_0" departPos="5.10" departSpeed="0.00" departDelay="0.00" arrival="343.00" arrivalLane="road_1_3_2_0" arrivalPos="786.40" arrivalSpeed="12.21" duration="185.00" routeLength="2158.56" waitingTime="0.00" waitingCount="0" stopTime="0.00" timeLoss="13.90" rerouteNo="2" devices="tripinfo_1.79 emissions_1.79" vType="DEFAULT_VEHTYPE@1.79" speedFactor="1.14" vaporized="">
        <emissions CO_abs="4462.872858" CO2_abs="439965.940630" HC_abs="30.032032" PMx_abs="5.942598" NOx_abs="165.216599" fuel_abs="140329.722410" electricity_abs="0"/>
    </tripinfo>
    <tripinfo id="1.107" depart="214.00" departLane="road_5_4_2_0" departPos="5.10" departSpeed="0.00" departDelay="0.00" arrival="366.00" arrivalLane="road_4_4_1_0" arrivalPos="586.40" arrivalSpeed="9.30" duration="152.00" routeLength="1376.73" waitingTime="0.00" waitingCount="0" stopTime="0.00" timeLoss="11.57" rerouteNo="0" devices="tripinfo_1.107 emissions_1.107" vType="DEFAULT_VEHTYPE" speedFactor="0.89" vaporized="">
        <emissions CO_abs="4787.533457" CO2_abs="321185.697448" HC_abs="29.023496" PMx_abs="3.988488" NOx_abs="121.019420" fuel_abs="102445.251607" electricity_abs="0"/>
    </tripinfo>
    <tripinfo id="1.34" depart="68.00" departLane="road_1_5_3_0" departPos="5.10" departSpeed="0.00" departDelay="0.00" arrival="368.00" arrivalLane="road_1_4_1_0" arrivalPos="586.40" arrivalSpeed="10.09" duration="300.00" routeLength="2789.59" waitingTime="25.00" waitingCount="1" stopTime="0.00" timeLoss="50.89" rerouteNo="0" devices="tripinfo_1.34 emissions_1.34" vType="DEFAULT_VEHTYPE" speedFactor="1.01" vaporized="">
        <emissions CO_abs="11776.714648" CO2_abs="656867.026064" HC_abs="68.617245" PMx_abs="9.494337" NOx_abs="254.212734" fuel_abs="209513.929081" electricity_abs="0"/>
    </tripinfo>
    <tripinfo id="1.51" depart="102.00" departLane="road_4_0_1_0" departPos="5.10" departSpeed="0.00" departDelay="0.00" arrival="370.00" arrivalLane="road_3_1_3_0" arrivalPos="586.40" arrivalSpeed="9.17" duration="268.00" routeLength="2000.20" waitingTime="33.00" waitingCount="2" stopTime="0.00" timeLoss="55.49" rerouteNo="2" devices="tripinfo_1.51 emissions_1.51" vType="DEFAULT_VEHTYPE@1.51" speedFactor="0.85" vaporized="">
        <emissions CO_abs="13701.501389" CO2_abs="562736.124302" HC_abs="75.201477" PMx_abs="8.701418" NOx_abs="223.917178" fuel_abs="179491.439836" electricity_abs="0"/>
    </tripinfo>
    <tripinfo id="1.31" depart="62.00" departLane="road_3_0_1_0" departPos="5.10" departSpeed="0.00" departDelay="0.00" arrival="376.00" arrivalLane="road_4_1_0_0" arrivalPos="786.40" arrivalSpeed="7.05" duration="314.00" routeLength="2176.90" waitingTime="0.00" waitingCount="0" stopTime="0.00" timeLoss="28.54" rerouteNo="2" devices="tripinfo_1.31 emissions_1.31" vType="DEFAULT_VEHTYPE@1.31" speedFactor="0.69" vaporized="">
        <emissions CO_abs="12645.209724" CO2_abs="552367.462192" HC_abs="69.957982" PMx_abs="7.548377" NOx_abs="215.407968" fuel_abs="176184.688643" electricity_abs="0"/>
    </tripinfo>
    <tripinfo id="1.77" depart="154.00" departLane="road_0_2_0_0" departPos="5.10" departSpeed="0.00" departDelay="0.00" arrival="379.00" arrivalLane="road_1_3_2_0" arrivalPos="786.40" arrivalSpeed="12.33" duration="225.00" routeLength="2194.86" waitingTime="30.00" waitingCount="1" stopTime="0.00" timeLoss="52.52" rerouteNo="0" devices="tripinfo_1.77 emissions_1.77" vType="DEFAULT_VEHTYPE" speedFactor="1.15" vaporized="">
        <emissions CO_abs="10056.581762" CO2_abs="541367.400476" HC_abs="57.741468" PMx_abs="8.042047" NOx_abs="208.454239" fuel_abs="172674.353938" electricity_abs="0"/>
    </tripinfo>
    <tripinfo id="1.127" depart="254.00" departLane="road_5_4_2_0" departPos="5.10" departSpeed="0.00" departDelay="0.00" arrival="380.00" arrivalLane="road_4_4_1_0" arrivalPos="586.40" arrivalSpeed="11.15" duration="126.00" routeLength="1376.73" waitingTime="0.00" waitingCount="0" stopTime="0.00" timeLoss="10.23" rerouteNo="0" devices="tripinfo_1.127 emissions_1.127" vType="DEFAULT_VEHTYPE" speedFactor="1.07" vaporized="">
        <emissions CO_abs="3185.494260" CO2_abs="286501.368930" HC_abs="20.951243" PMx_abs="3.727219" NOx_abs="107.384976" fuel_abs="91381.606312" electricity_abs="0"/>
    </tripinfo>
    <tripinfo id="1.14" depart="28.00" departLane="road_5_2_2_0" departPos="5.10" departSpeed="0.00" departDelay="0.00" arrival="382.00" arrivalLane="road_3_4_1_0" arrivalPos="586.40" arrivalSpeed="11.30" duration="354.00" routeLength="3364.08" waitingTime="31.00" waitingCount="1" stopTime="0.00" timeLoss="57.97" rerouteNo="0" devices="tripinfo_1.14 emissions_1.14" vType="DEFAULT_VEHTYPE" speedFactor="1.03" vaporized="">
        <emissions CO_abs="13423.032124" CO2_abs="787732.874880" HC_abs="78.976551" PMx_abs="10.925682" NOx_abs="300.972988" fuel_abs="251254.989191" electricity_abs="0"/>
    </tripinfo>
    <tripinfo id="1.18" depart="36.00" departLane="road_5_2_2_0" departPos="5.10" departSpeed="0.00" departDelay="0.00" arrival="384.00" arrivalLane="road_3_4_1_1" arrivalPos="586.40" arrivalSpeed="11.19" duration="348.00" routeLength="3364.08" waitingTime="24.00" waitingCount="1" stopTime="0.00" timeLoss="63.96" rerouteNo="0" devices="tripinfo_1.18 emissions_1.18" vType="DEFAULT_VEHTYPE" speedFactor="1.07" vaporized="">
        <emissions CO_abs="13197.314890" CO2_abs="798972.231204" HC_abs="78.195083" PMx_abs="11.344528" NOx_abs="306.735703" fuel_abs="254839.332318" electricity_abs="0"/>
    </tripinfo>
    <tripinfo id="1.60" depart="120.00" departLane="road_5_1_2_0" departPos="5.10" departSpeed="0.00" departDelay="0.00" arrival="400.00" arrivalLane="road_3_1_3_0" arrivalPos="586.40" arrivalSpeed="11.64" duration="280.00" routeLength="2197.72" waitingTime="70.00" waitingCount="2" stopTime="0.00" timeLoss="93.40" rerouteNo="2" devices="tripinfo_1.60 emissions_1.60" vType="DEFAULT_VEHTYPE@1.60" speedFactor="1.06" vaporized="">
        <emissions CO_abs="17613.733319" CO2_abs="673788.579642" HC_abs="95.505126" PMx_abs="11.119644" NOx_abs="269.036127" fuel_abs="214913.215115" electricity_abs="0"/>
    </tripinfo>
    <tripinfo id="1.111" depart="222.00" departLane="road_3_0_1_0" departPos="5.10" departSpeed="0.00" departDelay="0.00" arrival="404.00" arrivalLane="road_4_1_3_0" arrivalPos="586.40" arrivalSpeed="11.88" duration="182.00" routeLength="1958.56" waitingTime="0.00" waitingCount="0" stopTime="0.00" timeLoss="27.68" rerouteNo="2" devices="tripinfo_1.111 emissions_1.111" vType="DEFAULT_VEHTYPE@1.111" speedFactor="1.15" vaporized="">
        <emissions CO_abs="5017.921473" CO2_abs="425147.875355" HC_abs="32.209978" PMx_abs="5.764068" NOx_abs="160.768831" fuel_abs="135603.767649" electricity_abs="0"/>
    </tripinfo>
    <tripinfo id="1.61" depart="123.00" departLane="road_5_1_2_0" departPos="5.10" departSpeed="0.00" departDelay="1.00" arrival="412.00" arrivalLane="road_3_1_3_0" arrivalPos="586.40" arrivalSpeed="9.65" duration="289.00" routeLength="2197.72" waitingTime="40.00" waitingCount="1" stopTime="0.00" timeLoss="74.62" rerouteNo="0" devices="tripinfo_1.61 emissions_1.61" vType="DEFAULT_VEHTYPE" speedFactor="0.92" vaporized="">
        <emissions CO_abs="15105.679909" CO2_abs="616060.662313" HC_abs="82.811417" PMx_abs="9.480137" NOx_abs="243.759095" fuel_abs="196500.148742" electricity_abs="0"/>
    </tripinfo>
    <tripinfo id="1.130" depart="260.00" departLane="road_5_3_2_0" departPos="5.10" departSpeed="0.00" departDelay="0.00" arrival="424.00" arrivalLane="road_4_4_0_0" arrivalPos="786.40" arrivalSpeed="14.26" duration="164.00" routeLength="2158.56" waitingTime="0.00" waitingCount="0" stopTime="0.00" timeLoss="15.51" rerouteNo="0" devices="tripinfo_1.130 emissions_1.130" vType="DEFAULT_VEHTYPE" speedFactor="1.32" vaporized="">
        <emissions CO_abs="3983.979022" CO2_abs="435906.298484" HC_abs="27.499950" PMx_abs="6.274968" NOx_abs="163.756901" fuel_abs="139034.220790" electricity_abs="0"/>
    </tripinfo>
    <tripinfo id="1.99" depart="198.00" departLane="road_5_4_2_0" departPos="5.10" departSpeed="0.00" departDelay="0.00" arrival="439.00" arrivalLane="road_4_3_0_0" arrivalPos="786.40" arrivalSpeed="10.08" duration="241.00" routeLength="2200.20" waitingTime="8.00" waitingCount="1" stopTime="0.00" timeLoss="37.99" rerouteNo="2" devices="tripinfo_1.99 emissions_1.99" vType="DEFAULT_VEHTYPE@1.99" speedFactor="0.98" vaporized="">
        <emissions CO_abs="8664.389736" CO2_abs="503550.591771" HC_abs="50.880236" PMx_abs="6.917177" NOx_abs="193.078076" fuel_abs="160612.346150" electricity_abs="0"/>
    </tripinfo>
    <tripinfo id="1.108" depart="216.00" departLane="road_3_0_1_0" departPos="5.10" departSpeed="0.00" departDelay="0.00" arrival="443.00" arrivalLane="road_4_1_3_0" arrivalPos="586.40" arrivalSpeed="8.32" duration="227.00" routeLength="1958.56" waitingTime="0.00" waitingCount="0" stopTime="0.00" timeLoss="18.92" rerouteNo="0" devices="tripinfo_1.108 emissions_1.108" vType="DEFAULT_VEHTYPE" speedFactor="0.85" vaporized="">
        <emissions CO_abs="7429.004253" CO2_abs="451547.194242" HC_abs="43.966587" PMx_abs="5.677578" NOx_abs="171.181832" fuel_abs="144025.616479" electricity_abs="0"/>
    </tripinfo>
    <tripinfo id="1.35" depart="70.00" departLane="road_0_4_0_0" departPos="5.10" departSpeed="0.00" departDelay="0.00" arrival="446.00" arrivalLane="road_4_4_1_0" arrivalPos="586.40" arrivalSpeed="12.34" duration="376.00" routeLength="3798.06" waitingTime="35.00" waitingCount="3" stopTime="0.00" timeLoss="76.40" rerouteNo="0" devices="tripinfo_1.35 emissions_1.35" vType="DEFAULT_VEHTYPE" speedFactor="1.14" vaporized="">
        <emissions CO_abs="14741.052822" CO2_abs="896125.212049" HC_abs="86.491407" PMx_abs="12.703998" NOx_abs="340.735884" fuel_abs="285827.261342" electricity_abs="0"/>
    </tripinfo>
    <tripinfo id="1.12" depart="24.00" departLane="road_5_4_2_0" departPos="5.10" departSpeed="0.00" departDelay="0.00" arrival="451.00" arrivalLane="road_1_4_2_0" arrivalPos="786.40" arrivalSpeed="12.85" duration="427.00" routeLength="3995.58" waitingTime="81.00" waitingCount="3" stopTime="0.00" timeLoss="116.15" rerouteNo="0" devices="tripinfo_1.12 emissions_1.12" vType="DEFAULT_VEHTYPE" speedFactor="1.16" vaporized="">
        <emissions CO_abs="21714.186588" CO2_abs="1043004.943801" HC_abs="121.225746" PMx_abs="15.727769" NOx_abs="401.645676" fuel_abs="332677.756014" electricity_abs="0"/>
    </tripinfo>
    <tripinfo id="1.54" depart="108.00" departLane="road_2_5_3_0" departPos="5.10" departSpeed="0.00" departDelay="0.00" arrival="453.00" arrivalLane="road_4_4_1_0" arrivalPos="586.40" arrivalSpeed="10.89" duration="345.00" routeLength="2797.66" waitingTime="69.00" waitingCount="3" stopTime="0.00" timeLoss="105.20" rerouteNo="0" devices="tripinfo_1.54 emissions_1.54" vType="DEFAULT_VEHTYPE" speedFactor="1.05" vaporized="">
        <emissions CO_abs="19948.296123" CO2_abs="802448.290033" HC_abs="109.230183" PMx_abs="13.275999" NOx_abs="321.326651" fuel_abs="255950.081591" electricity_abs="0"/>
    </tripinfo>
    <tripinfo id="1.94" depart="188.00" departLane="road_0_4_0_0" departPos="5.10" departSpeed="0.00" departDelay="0.00" arrival="455.00" arrivalLane="road_2_4_1_0" arrivalPos="586.40" arrivalSpeed="8.65" duration="267.00" routeLength="2197.72" waitingTime="4.00" waitingCount="1" stopTime="0.00" timeLoss="27.03" rerouteNo="0" devices="tripinfo_1.94 emissions_1.94" vType="DEFAULT_VEHTYPE" speedFactor="0.82" vaporized="">
        <emissions CO_abs="9401.774262" CO2_abs="507850.399632" HC_abs="54.208735" PMx_abs="6.551752" NOx_abs="193.938030" fuel_abs="161984.552109" electricity_abs="0"/>
    </tripinfo>
    <tripinfo id="1.85" depart="170.00" departLane="road_5_3_2_0" departPos="5.10" departSpeed="0.00" departDelay="0.00" arrival="459.00" arrivalLane="road_3_4_1_0" arrivalPos="586.40" arrivalSpeed="10.03" duration="289.00" routeLength="2761.21" waitingTime="0.00" waitingCount="0" stopTime="0.00" timeLoss="21.81" rerouteNo="3" devices="tripinfo_1.85 emissions_1.85" vType="DEFAULT_VEHTYPE@1.85" speedFactor="0.93" vaporized="">
        <emissions CO_abs="7997.306085" CO2_abs="585503.027710" HC_abs="49.606082" PMx_abs="7.224465" NOx_abs="219.622836" fuel_abs="186751.438692" electricity_abs="0"/>
    </tripinfo>
    <tripinfo id="1.88" depart="176.00" departLane="road_0_2_0_0" departPos="5.10" departSpeed="0.00" departDelay="0.00" arrival="461.00" arrivalLane="road_2_1_3_0" arrivalPos="586.40" arrivalSpeed="10.41" duration="285.00" routeLength="2766.75" waitingTime="7.00" waitingCount="1" stopTime="0.00" timeLoss="32.68" rerouteNo="0" devices="tripinfo_1.88 emissions_1.88" vType="DEFAULT_VEHTYPE" speedFactor="0.99" vaporized="">
        <emissions CO_abs="8851.984875" CO2_abs="615373.797547" HC_abs="54.269166" PMx_abs="8.127170" NOx_abs="233.457575" fuel_abs="196278.737488" electricity_abs="0"/>
    </tripinfo>
    <tripinfo id="1.0" depart="0.00" departLane="road_4_0_1_0" departPos="5.10" departSpeed="0.00" departDelay="0.00" arrival="481.00" arrivalLane="road_1_1_2_0" arrivalPos="786.40" arrivalSpeed="11.74" duration="481.00" routeLength="3795.35" waitingTime="123.00" waitingCount="2" stopTime="0.00" timeLoss="162.40" rerouteNo="0" devices="tripinfo_1.0 emissions_1.0" vType="DEFAULT_VEHTYPE" speedFactor="1.07" vaporized="">
        <emissions CO_abs="29719.715520" CO2_abs="1132611.695477" HC_abs="161.050813" PMx_abs="18.390634" NOx_abs="449.987067" fuel_abs="361260.964036" electricity_abs="0"/>
    </tripinfo>
    <tripinfo id="1.128" depart="256.00" departLane="road_0_2_0_0" departPos="5.10" departSpeed="0.00" departDelay="0.00" arrival="484.00" arrivalLane="road_1_3_2_0" arrivalPos="786.40" arrivalSpeed="12.43" duration="228.00" routeLength="2200.20" waitingTime="37.00" waitingCount="1" stopTime="0.00" timeLoss="56.05" rerouteNo="2" devices="tripinfo_1.128 emissions_1.128" vType="DEFAULT_VEHTYPE@1.128" speedFactor="1.15" vaporized="">
        <emissions CO_abs="11139.670094" CO2_abs="548406.997235" HC_abs="62.995454" PMx_abs="8.601909" NOx_abs="214.521280" fuel_abs="174919.764378" electricity_abs="0"/>
    </tripinfo>
    <tripinfo id="1.103" depart="206.00" departLane="road_2_0_1_0" departPos="5.10" departSpeed="0.00" departDelay="0.00" arrival="491.00" arrivalLane="road_1_1_2_0" arrivalPos="786.40" arrivalSpeed="9.10" duration="285.00" routeLength="2197.72" waitingTime="41.00" waitingCount="2" stopTime="0.00" timeLoss="67.59" rerouteNo="2" devices="tripinfo_1.103 emissions_1.103" vType="DEFAULT_VEHTYPE@1.103" speedFactor="0.91" vaporized="">
        <emissions CO_abs="14709.958543" CO2_abs="606661.336590" HC_abs="80.768020" PMx_abs="9.164713" NOx_abs="239.008235" fuel_abs="193502.197672" electricity_abs="0"/>
    </tripinfo>
    <tripinfo id="1.152" depart="304.00" departLane="road_0_3_0_0" departPos="5.10" departSpeed="0.00" departDelay="0.00" arrival="501.00" arrivalLane="road_1_2_2_0" arrivalPos="786.40" arrivalSpeed="11.42" duration="197.00" routeLength="2158.56" waitingTime="0.00" waitingCount="0" stopTime="0.00" timeLoss="15.16" rerouteNo="0" devices="tripinfo_1.152 emissions_1.152" vType="DEFAULT_VEHTYPE" speedFactor="1.08" vaporized="">
        <emissions CO_abs="4642.598296" CO2_abs="444248.076246" HC_abs="31.011393" PMx_abs="5.488516" NOx_abs="164.245032" fuel_abs="141696.188161" electricity_abs="0"/>
    </tripinfo>
    <tripinfo id="1.109" depart="218.00" departLane="road_0_3_0_0" departPos="5.10" departSpeed="0.00" departDelay="0.00" arrival="503.00" arrivalLane="road_1_4_1_0" arrivalPos="586.40" arrivalSpeed="10.81" duration="285.00" routeLength="1995.01" waitingTime="89.00" waitingCount="1" stopTime="0.00" timeLoss="107.89" rerouteNo="0" devices="tripinfo_1.109 emissions_1.109" vType="DEFAULT_VEHTYPE" speedFactor="1.02" vaporized="">
        <emissions CO_abs="19949.697026" CO2_abs="653814.052584" HC_abs="105.834216" PMx_abs="11.147088" NOx_abs="264.275449" fuel_abs="208543.438134" electricity_abs="0"/>
    </tripinfo>
    <tripinfo id="1.133" depart="266.00" departLane="road_3_5_3_0" departPos="5.10" departSpeed="0.00" departDelay="0.00" arrival="503.00" arrivalLane="road_4_4_1_0" arrivalPos="586.40" arrivalSpeed="9.22" duration="237.00" routeLength="1994.86" waitingTime="20.00" waitingCount="2" stopTime="0.00" timeLoss="42.60" rerouteNo="0" devices="tripinfo_1.133 emissions_1.133" vType="DEFAULT_VEHTYPE" speedFactor="0.93" vaporized="">
        <emissions CO_abs="10331.479143" CO2_abs="509947.140715" HC_abs="58.610423" PMx_abs="7.256425" NOx_abs="197.827094" fuel_abs="162653.232068" electricity_abs="0"/>
    </tripinfo>
    <tripinfo id="1.50" depart="100.00" departLane="road_0_1_0_0" departPos="5.10" departSpeed="0.00" departDelay="0.00" arrival="510.00" arrivalLane="road_4_1_3_0" arrivalPos="586.40" arrivalSpeed="12.89" duration="410.00" routeLength="3777.24" waitingTime="85.00" waitingCount="3" stopTime="0.00" timeLoss="118.44" rerouteNo="0" devices="tripinfo_1.50 emissions_1.50" vType="DEFAULT_VEHTYPE" speedFactor="1.17" vaporized="">
        <emissions CO_abs="22600.755132" CO2_abs="1022204.483880" HC_abs="125.442448" PMx_abs="16.398135" NOx_abs="402.067225" fuel_abs="326042.798479" electricity_abs="0"/>
    </tripinfo>
    <tripinfo id="1.84" depart="169.00" departLane="road_0_4_0_0" departPos="5.10" departSpeed="0.00" departDelay="1.00" arrival="510.00" arrivalLane="road_1_2_2_0" arrivalPos="786.40" arrivalSpeed="12.07" duration="341.00" routeLength="2758.73" waitingTime="87.00" waitingCount="1" stopTime="0.00" timeLoss="114.29" rerouteNo="3" devices="tripinfo_1.84 emissions_1.84" vType="DEFAULT_VEHTYPE@1.84" speedFactor="1.10" vaporized="">
        <emissions CO_abs="21383.420989" CO2_abs="829503.573808" HC_abs="116.248061" PMx_abs="13.832184" NOx_abs="332.084017" fuel_abs="264580.066473" electricity_abs="0"/>
    </tripinfo>
    <tripinfo id="1.23" depart="47.00" departLane="road_0_2_0_0" departPos="5.10" departSpeed="0.00" departDelay="1.00" arrival="512.00" arrivalLane="road_1_4_1_0" arrivalPos="586.40" arrivalSpeed="10.79" duration="465.00" routeLength="4182.37" waitingTime="74.00" waitingCount="2" stopTime="0.00" timeLoss="107.94" rerouteNo="5" devices="tripinfo_1.23 emissions_1.23" vType="DEFAULT_VEHTYPE@1.23" speedFactor="1.06" vaporized="">