<?xml version="1.0" encoding="UTF-8"?>

<!-- generated on 2025-12-12 15:53:50 by Eclipse SUMO sumo Version 1.22.0
<sumoConfiguration xmlns:xsi="http://www.w3.org/2001/XMLSchema-instance" xsi:noNamespaceSchemaLocation="http://sumo.dlr.de/xsd/sumoConfiguration.xsd">

    <input>
        <net-file value="./res/hangzhou/4_Phase.net.xml"/>
        <route-files value="./res/hangzhou/uniform_4200.rou.xml"/>
    </input>

    <output>
        <queue-output value="./queues.xml"/>
        <queue-output.period value="3.0"/>
        <tripinfo-output value="./tripinfos.xml"/>
    </output>

    <time>
        <begin value="0"/>
        <end value="3600"/>
    </time>

    <processing>
        <threads value="10"/>
    </processing>

    <routing>
        <routing-algorithm value="astar"/>
    </routing>

    <report>
        <duration-log.statistics value="true"/>
    </report>

    <emissions>
        <device.emissions.probability value="1.0"/>
    </emissions>

    <traci_server>
        <remote-port value="56675"/>
    </traci_server>

    <random_number>
        <seed value="25"/>
    </random_number>

</sumoConfiguration>
-->

<tripinfos xmlns:xsi="http://www.w3.org/2001/XMLSchema-instance" xsi:noNamespaceSchemaLocation="http://sumo.dlr.de/xsd/tripinfo_file.xsd">
    <tripinfo id="1.21" depart="42.00" departLane="road_0_4_0_0" departPos="5.10" departSpeed="0.00" departDelay="0.00" arrival="223.00" arrivalLane="road_1_4_1_0" arrivalPos="586.40" arrivalSpeed="7.67" duration="181.00" routeLength="1397.55" waitingTime="0.00" waitingCount="0" stopTime="0.00" timeLoss="15.87" rerouteNo="0" devices="tripinfo_1.21 emissions_1.21" vType="DEFAULT_VEHTYPE" speedFactor="0.76" vaporized="">
        <emissions CO_abs="6678.289518" CO2_abs="335656.858032" HC_abs="37.940652" PMx_abs="4.435041" NOx_abs="129.396148" fuel_abs="107061.634894" electricity_abs="0"/>
    </tripinfo>
    <tripinfo id="1.17" depart="34.00" departLane="road_2_0_1_0" departPos="5.10" departSpeed="0.00" departDelay="0.00" arrival="231.00" arrivalLane="road_3_1_3_0" arrivalPos="586.40" arrivalSpeed="10.13" duration="197.00" routeLength="1958.56" waitingTime="0.00" waitingCount="0" stopTime="0.00" timeLoss="15.10" rerouteNo="0" devices="tripinfo_1.17 emissions_1.17" vType="DEFAULT_VEHTYPE" speedFactor="0.98" vaporized="">
        <emissions CO_abs="5494.138367" CO2_abs="418132.815162" HC_abs="34.515218" PMx_abs="5.510442" NOx_abs="158.722889" fuel_abs="133366.708516" electricity_abs="0"/>
    </tripinfo>
    <tripinfo id="1.44" depart="88.00" departLane="road_0_2_0_0" departPos="5.10" departSpeed="0.00" departDelay="0.00" arrival="277.00" arrivalLane="road_1_1_2_0" arrivalPos="786.40" arrivalSpeed="12.29" duration="189.00" routeLength="2158.56" waitingTime="0.00" waitingCount="0" stopTime="0.00" timeLoss="14.14" rerouteNo="0" devices="tripinfo_1.44 emissions_1.44" vType="DEFAULT_VEHTYPE" speedFactor="1.12" vaporized="">
        <emissions CO_abs="4696.258123" CO2_abs="445347.409383" HC_abs="31.281829" PMx_abs="6.059511" NOx_abs="168.136288" fuel_abs="142046.205605" electricity_abs="0"/>
    </tripinfo>
    <tripinfo id="1.74" depart="148.00" departLane="road_0_4_0_0" departPos="5.10" departSpeed="0.00" departDelay="0.00" arrival="295.00" arrivalLane="road_1_4_1_0" arrivalPos="586.40" arrivalSpeed="9.34" duration="147.00" routeLength="1397.55" waitingTime="0.00" waitingCount="0" stopTime="0.00" timeLoss="11.31" rerouteNo="0" devices="tripinfo_1.74 emissions_1.74" vType="DEFAULT_VEHTYPE" speedFactor="0.93" vaporized="">
        <emissions CO_abs="4086.163725" CO2_abs="294642.246174" HC_abs="25.246213" PMx_abs="3.661016" NOx_abs="110.683644" fuel_abs="93978.797857" electricity_abs="0"/>
    </tripinfo>
    <tripinfo id="1.8" depart="16.00" departLane="road_0_4_0_0" departPos="5.10" departSpeed="0.00" departDelay="0.00" arrival="299.00" arrivalLane="road_3_4_1_0" arrivalPos="586.40" arrivalSpeed="11.18" duration="283.00" routeLength="2997.89" waitingTime="0.00" waitingCount="0" stopTime="0.00" timeLoss="23.41" rerouteNo="0" devices="tripinfo_1.8 emissions_1.8" vType="DEFAULT_VEHTYPE" speedFactor="1.04" vaporized="">
        <emissions CO_abs="6511.681456" CO2_abs="601271.285899" HC_abs="43.091676" PMx_abs="6.999813" NOx_abs="219.901197" fuel_abs="191780.512601" electricity_abs="0"/>
    </tripinfo>
    <tripinfo id="1.73" depart="146.00" departLane="road_3_0_1_0" departPos="5.10" departSpeed="0.00" departDelay="0.00" arrival="324.00" arrivalLane="road_4_1_3_0" arrivalPos="586.40" arrivalSpeed="11.85" duration="178.00" routeLength="1958.56" waitingTime="0.00" waitingCount="0" stopTime="0.00" timeLoss="13.52" rerouteNo="0" devices="tripinfo_1.73 emissions_1.73" vType="DEFAULT_VEHTYPE" speedFactor="1.08" vaporized="">
        <emissions CO_abs="4368.707051" CO2_abs="414016.926209" HC_abs="29.223949" PMx_abs="5.294908" NOx_abs="154.367985" fuel_abs="132053.566608" electricity_abs="0"/>
    </tripinfo>
    <tripinfo id="1.10" depart="21.00" departLane="road_5_1_2_0" departPos="5.10" departSpeed="0.00" departDelay="1.00" arrival="336.00" arrivalLane="road_4_1_3_0" arrivalPos="586.40" arrivalSpeed="10.79" duration="315.00" routeLength="1397.55" waitingTime="170.00" waitingCount="1" stopTime="0.00" timeLoss="187.07" rerouteNo="0" devices="tripinfo_1.10 emissions_1.10" vType="DEFAULT_VEHTYPE" speedFactor="0.99" vaporized="">
        <emissions CO_abs="32529.264717" CO2_abs="761662.691455" HC_abs="165.739844" PMx_abs="15.292549" NOx_abs="323.946035" fuel_abs="242946.493518" electricity_abs="0"/>
    </tripinfo>
    <tripinfo id="1.79" depart="158.00" departLane="road_0_4_0_0" departPos="5.10" departSpeed="0.00" departDelay="0.00" arrival="343.00" arrivalLane="road_1_3_2_0" arrivalPos="786.40" arrivalSpeed="12.53" duration="185.00" routeLength="2158.56" waitingTime="0.00" waitingCount="0" stopTime="0.00" timeLoss="13.90" rerouteNo="0" devices="tripinfo_1.79 emissions_1.79" vType="DEFAULT_VEHTYPE" speedFactor="1.14" vaporized="">
        <emissions CO_abs="4292.343534" CO2_abs="435768.481294" HC_abs="29.189917" PMx_abs="5.726478" NOx_abs="162.639015" fuel_abs="138991.021698" electricity_abs="0"/>
    </tripinfo>
    <tripinfo id="1.15" depart="30.00" departLane="road_5_1_2_0" departPos="5.10" departSpeed="0.00" departDelay="0.00" arrival="349.00" arrivalLane="road_4_1_3_0" arrivalPos="586.40" arrivalSpeed="8.85" duration="319.00" routeLength="1397.55" waitingTime="148.00" waitingCount="1" stopTime="0.00" timeLoss="171.73" rerouteNo="0" devices="tripinfo_1.15 emissions_1.15" vType="DEFAULT_VEHTYPE" speedFactor="0.86" vaporized="">
        <emissions CO_abs="30975.310825" CO2_abs="732697.307951" HC_abs="157.969583" PMx_abs="14.626300" NOx_abs="312.310743" fuel_abs="233707.242894" electricity_abs="0"/>
    </tripinfo>
    <tripinfo id="1.60" depart="120.00" departLane="road_5_1_2_0" departPos="5.10" departSpeed="0.00" departDelay="0.00" arrival="361.00" arrivalLane="road_3_1_3_0" arrivalPos="586.40" arrivalSpeed="11.02" duration="241.00" routeLength="2197.72" waitingTime="37.00" waitingCount="1" stopTime="0.00" timeLoss="54.78" rerouteNo="0" devices="tripinfo_1.60 emissions_1.60" vType="DEFAULT_VEHTYPE" speedFactor="1.06" vaporized="">
        <emissions CO_abs="11209.919165" CO2_abs="558396.555718" HC_abs="63.588868" PMx_abs="8.082236" NOx_abs="214.906397" fuel_abs="178106.690620" electricity_abs="0"/>
    </tripinfo>
    <tripinfo id="1.107" depart="214.00" departLane="road_5_4_2_0" departPos="5.10" departSpeed="0.00" departDelay="0.00" arrival="366.00" arrivalLane="road_4_4_1_0" arrivalPos="586.40" arrivalSpeed="9.00" duration="152.00" routeLength="1376.73" waitingTime="0.00" waitingCount="0" stopTime="0.00" timeLoss="11.97" rerouteNo="0" devices="tripinfo_1.107 emissions_1.107" vType="DEFAULT_VEHTYPE" speedFactor="0.89" vaporized="">
        <emissions CO_abs="4866.490048" CO2_abs="309736.641718" HC_abs="29.185805" PMx_abs="4.213150" NOx_abs="119.231932" fuel_abs="98793.197373" electricity_abs="0"/>
    </tripinfo>
    <tripinfo id="1.61" depart="123.00" departLane="road_5_1_2_0" departPos="5.10" departSpeed="0.00" departDelay="1.00" arrival="372.00" arrivalLane="road_3_1_3_0" arrivalPos="586.40" arrivalSpeed="10.16" duration="249.00" routeLength="2197.72" waitingTime="8.00" waitingCount="1" stopTime="0.00" timeLoss="34.33" rerouteNo="0" devices="tripinfo_1.61 emissions_1.61" vType="DEFAULT_VEHTYPE" speedFactor="0.92" vaporized="">
        <emissions CO_abs="8759.913040" CO2_abs="501548.806575" HC_abs="51.230790" PMx_abs="6.733678" NOx_abs="191.790045" fuel_abs="159974.073668" electricity_abs="0"/>
    </tripinfo>
    <tripinfo id="1.31" depart="62.00" departLane="road_3_0_1_0" departPos="5.10" departSpeed="0.00" departDelay="0.00" arrival="377.00" arrivalLane="road_4_1_0_0" arrivalPos="786.40" arrivalSpeed="7.46" duration="315.00" routeLength="2179.60" waitingTime="0.00" waitingCount="0" stopTime="0.00" timeLoss="28.71" rerouteNo="0" devices="tripinfo_1.31 emissions_1.31" vType="DEFAULT_VEHTYPE" speedFactor="0.69" vaporized="">
        <emissions CO_abs="12719.783525" CO2_abs="555500.145534" HC_abs="70.361913" PMx_abs="7.560793" NOx_abs="216.425880" fuel_abs="177183.935028" electricity_abs="0"/>
    </tripinfo>
    <tripinfo id="1.127" depart="254.00" departLane="road_5_4_2_0" departPos="5.10" departSpeed="0.00" departDelay="0.00" arrival="380.00" arrivalLane="road_4_4_1_0" arrivalPos="586.40" arrivalSpeed="10.70" duration="126.00" routeLength="1376.73" waitingTime="0.00" waitingCount="0" stopTime="0.00" timeLoss="9.89" rerouteNo="0" devices="tripinfo_1.127 emissions_1.127" vType="DEFAULT_VEHTYPE" speedFactor="1.07" vaporized="">
        <emissions CO_abs="3351.245205" CO2_abs="297810.659008" HC_abs="21.952066" PMx_abs="3.970145" NOx_abs="112.323414" fuel_abs="94988.692747" electricity_abs="0"/>
    </tripinfo>
    <tripinfo id="1.34" depart="68.00" departLane="road_1_5_3_0" departPos="5.10" departSpeed="0.00" departDelay="0.00" arrival="395.00" arrivalLane="road_1_4_1_0" arrivalPos="586.40" arrivalSpeed="10.68" duration="327.00" routeLength="2789.59" waitingTime="50.00" waitingCount="1" stopTime="0.00" timeLoss="77.77" rerouteNo="0" devices="tripinfo_1.34 emissions_1.34" vType="DEFAULT_VEHTYPE" speedFactor="1.01" vaporized="">
        <emissions CO_abs="15859.164737" CO2_abs="723967.468558" HC_abs="88.715161" PMx_abs="10.849148" NOx_abs="282.695143" fuel_abs="230917.642438" electricity_abs="0"/>
    </tripinfo>
    <tripinfo id="1.111" depart="222.00" departLane="road_3_0_1_0" departPos="5.10" departSpeed="0.00" departDelay="0.00" arrival="405.00" arrivalLane="road_4_1_3_0" arrivalPos="586.40" arrivalSpeed="12.71" duration="183.00" routeLength="1958.56" waitingTime="0.00" waitingCount="0" stopTime="0.00" timeLoss="28.03" rerouteNo="0" devices="tripinfo_1.111 emissions_1.111" vType="DEFAULT_VEHTYPE" speedFactor="1.15" vaporized="">
        <emissions CO_abs="4763.703420" CO2_abs="414912.196911" HC_abs="30.807588" PMx_abs="5.436739" NOx_abs="155.580853" fuel_abs="132339.160443" electricity_abs="0"/>
    </tripinfo>
    <tripinfo id="1.130" depart="260.00" departLane="road_5_3_2_0" departPos="5.10" departSpeed="0.00" departDelay="0.00" arrival="425.00" arrivalLane="road_4_4_0_0" arrivalPos="786.40" arrivalSpeed="13.70" duration="165.00" routeLength="2158.56" waitingTime="0.00" waitingCount="0" stopTime="0.00" timeLoss="16.54" rerouteNo="0" devices="tripinfo_1.130 emissions_1.130" vType="DEFAULT_VEHTYPE" speedFactor="1.32" vaporized="">
        <emissions CO_abs="3753.584237" CO2_abs="440712.669421" HC_abs="25.842105" PMx_abs="5.789280" NOx_abs="161.053604" fuel_abs="140567.627560" electricity_abs="0"/>
    </tripinfo>
    <tripinfo id="1.108" depart="216.00" departLane="road_3_0_1_0" departPos="5.10" departSpeed="0.00" departDelay="0.00" arrival="443.00" arrivalLane="road_4_1_3_0" arrivalPos="586.40" arrivalSpeed="8.36" duration="227.00" routeLength="1958.56" waitingTime="0.00" waitingCount="0" stopTime="0.00" timeLoss="19.32" rerouteNo="0" devices="tripinfo_1.108 emissions_1.108" vType="DEFAULT_VEHTYPE" speedFactor="0.85" vaporized="">
        <emissions CO_abs="7469.392417" CO2_abs="448412.107659" HC_abs="44.087509" PMx_abs="5.696592" NOx_abs="170.440638" fuel_abs="143025.635158" electricity_abs="0"/>
    </tripinfo>
    <tripinfo id="1.110" depart="220.00" departLane="road_5_4_2_0" departPos="5.10" departSpeed="0.00" departDelay="0.00" arrival="446.00" arrivalLane="road_3_4_1_0" arrivalPos="586.40" arrivalSpeed="9.53" duration="226.00" routeLength="2176.90" waitingTime="2.00" waitingCount="1" stopTime="0.00" timeLoss="20.83" rerouteNo="0" devices="tripinfo_1.110 emissions_1.110" vType="DEFAULT_VEHTYPE" speedFactor="0.96" vaporized="">
        <emissions CO_abs="6579.885510" CO2_abs="468861.529788" HC_abs="40.553447" PMx_abs="5.948450" NOx_abs="176.596837" fuel_abs="149547.543217" electricity_abs="0"/>
    </tripinfo>
    <tripinfo id="1.35" depart="70.00" departLane="road_0_4_0_0" departPos="5.10" departSpeed="0.00" departDelay="0.00" arrival="447.00" arrivalLane="road_4_4_1_0" arrivalPos="586.40" arrivalSpeed="12.07" duration="377.00" routeLength="3798.06" waitingTime="47.00" waitingCount="2" stopTime="0.00" timeLoss="77.07" rerouteNo="0" devices="tripinfo_1.35 emissions_1.35" vType="DEFAULT_VEHTYPE" speedFactor="1.14" vaporized="">
        <emissions CO_abs="15544.540694" CO2_abs="897390.831842" HC_abs="90.145912" PMx_abs="12.991990" NOx_abs="342.656176" fuel_abs="286231.150898" electricity_abs="0"/>
    </tripinfo>
    <tripinfo id="1.46" depart="92.00" departLane="road_5_1_2_0" departPos="5.10" departSpeed="0.00" departDelay="0.00" arrival="460.00" arrivalLane="road_2_1_3_0" arrivalPos="586.40" arrivalSpeed="9.32" duration="368.00" routeLength="2997.89" waitingTime="48.00" waitingCount="1" stopTime="0.00" timeLoss="74.57" rerouteNo="0" devices="tripinfo_1.46 emissions_1.46" vType="DEFAULT_VEHTYPE" speedFactor="0.92" vaporized="">
        <emissions CO_abs="16940.664519" CO2_abs="762385.710060" HC_abs="94.422523" PMx_abs="11.030216" NOx_abs="296.839382" fuel_abs="243172.029869" electricity_abs="0"/>
    </tripinfo>
    <tripinfo id="1.50" depart="100.00" departLane="road_0_1_0_0" departPos="5.10" departSpeed="0.00" departDelay="0.00" arrival="468.00" arrivalLane="road_4_1_3_0" arrivalPos="586.40" arrivalSpeed="12.37" duration="368.00" routeLength="3777.24" waitingTime="44.00" waitingCount="1" stopTime="0.00" timeLoss="76.20" rerouteNo="0" devices="tripinfo_1.50 emissions_1.50" vType="DEFAULT_VEHTYPE" speedFactor="1.17" vaporized="">
        <emissions CO_abs="14450.031054" CO2_abs="858266.289087" HC_abs="84.325781" PMx_abs="12.326163" NOx_abs="327.002719" fuel_abs="273751.828220" electricity_abs="0"/>
    </tripinfo>
    <tripinfo id="1.94" depart="188.00" departLane="road_0_4_0_0" departPos="5.10" departSpeed="0.00" departDelay="0.00" arrival="468.00" arrivalLane="road_2_4_1_0" arrivalPos="586.40" arrivalSpeed="8.57" duration="280.00" routeLength="2197.72" waitingTime="15.00" waitingCount="1" stopTime="0.00" timeLoss="39.14" rerouteNo="0" devices="tripinfo_1.94 emissions_1.94" vType="DEFAULT_VEHTYPE" speedFactor="0.82" vaporized="">
        <emissions CO_abs="11362.708105" CO2_abs="543501.484183" HC_abs="63.962198" PMx_abs="7.345615" NOx_abs="209.736507" fuel_abs="173356.308729" electricity_abs="0"/>
    </tripinfo>
    <tripinfo id="1.12" depart="24.00" departLane="road_5_4_2_0" departPos="5.10" departSpeed="0.00" departDelay="0.00" arrival="474.00" arrivalLane="road_1_4_2_0" arrivalPos="786.40" arrivalSpeed="11.87" duration="450.00" routeLength="3995.58" waitingTime="111.00" waitingCount="2" stopTime="0.00" timeLoss="138.80" rerouteNo="0" devices="tripinfo_1.12 emissions_1.12" vType="DEFAULT_VEHTYPE" speedFactor="1.16" vaporized="">
        <emissions CO_abs="25571.882968" CO2_abs="1079493.958394" HC_abs="139.734424" PMx_abs="17.018979" NOx_abs="421.369844" fuel_abs="344317.374753" electricity_abs="0"/>
    </tripinfo>
    <tripinfo id="1.58" depart="116.00" departLane="road_1_0_1_0" departPos="5.10" departSpeed="0.00" departDelay="0.00" arrival="487.00" arrivalLane="road_4_1_0_0" arrivalPos="786.40" arrivalSpeed="11.02" duration="371.00" routeLength="3779.94" waitingTime="0.00" waitingCount="0" stopTime="0.00" timeLoss="35.12" rerouteNo="0" devices="tripinfo_1.58 emissions_1.58" vType="DEFAULT_VEHTYPE" speedFactor="1.02" vaporized="">
        <emissions CO_abs="9068.028850" CO2_abs="761135.040244" HC_abs="58.433028" PMx_abs="9.142853" NOx_abs="281.838739" fuel_abs="242770.469315" electricity_abs="0"/>
    </tripinfo>
    <tripinfo id="1.102" depart="204.00" departLane="road_2_5_3_0" departPos="5.10" departSpeed="0.00" departDelay="0.00" arrival="491.00" arrivalLane="road_1_3_2_0" arrivalPos="786.40" arrivalSpeed="10.37" duration="287.00" routeLength="2766.75" waitingTime="0.00" waitingCount="0" stopTime="0.00" timeLoss="19.42" rerouteNo="0" devices="tripinfo_1.102 emissions_1.102" vType="DEFAULT_VEHTYPE" speedFactor="0.94" vaporized="">
        <emissions CO_abs="7595.522326" CO2_abs="587702.140590" HC_abs="47.772266" PMx_abs="6.877450" NOx_abs="217.604074" fuel_abs="187453.051238" electricity_abs="0"/>
    </tripinfo>
    <tripinfo id="1.152" depart="304.00" departLane="road_0_3_0_0" departPos="5.10" departSpeed="0.00" departDelay="0.00" arrival="500.00" arrivalLane="road_1_2_2_0" arrivalPos="786.40" arrivalSpeed="11.74" duration="196.00" routeLength="2158.56" waitingTime="0.00" waitingCount="0" stopTime="0.00" timeLoss="14.32" rerouteNo="0" devices="tripinfo_1.152 emissions_1.152" vType="DEFAULT_VEHTYPE" speedFactor="1.08" vaporized="">
        <emissions CO_abs="4462.890212" CO2_abs="441809.748421" HC_abs="30.201615" PMx_abs="5.377072" NOx_abs="162.822526" fuel_abs="140918.459324" electricity_abs="0"/>
    </tripinfo>
    <tripinfo id="1.169" depart="338.00" departLane="road_2_5_3_0" departPos="5.10" departSpeed="0.00" departDelay="0.00" arrival="515.00" arrivalLane="road_1_4_1_0" arrivalPos="586.40" arrivalSpeed="11.89" duration="177.00" routeLength="1958.56" waitingTime="0.00" waitingCount="0" stopTime="0.00" timeLoss="13.92" rerouteNo="0" devices="tripinfo_1.169 emissions_1.169" vType="DEFAULT_VEHTYPE" speedFactor="1.09" vaporized="">
        <emissions CO_abs="4151.155104" CO2_abs="407631.467655" HC_abs="28.006283" PMx_abs="5.107711" NOx_abs="151.054473" fuel_abs="130016.916480" electricity_abs="0"/>
    </tripinfo>
    <tripinfo id="1.4" depart="8.00" departLane="road_2_0_1_0" departPos="5.10" departSpeed="0.00" departDelay="0.00" arrival="540.00" arrivalLane="road_1_1_2_1" arrivalPos="786.40" arrivalSpeed="10.09" duration="532.00" routeLength="2167.87" waitingTime="303.00" waitingCount="2" stopTime="0.00" timeLoss="331.46" rerouteNo="0" devices="tripinfo_1.4 emissions_1.4" vType="DEFAULT_VEHTYPE" speedFactor="0.97" vaporized="">
        <emissions CO_abs="56801.175978" CO2_abs="1266824.315948" HC_abs="287.966697" PMx_abs="25.987667" NOx_abs="542.389330" fuel_abs="404078.290019" electricity_abs="0"/>
    </tripinfo>
    <tripinfo id="1.9" depart="18.00" departLane="road_5_1_2_0" departPos="5.10" departSpeed="0.00" departDelay="0.00" arrival="540.00" arrivalLane="road_1_1_2_0" arrivalPos="786.40" arrivalSpeed="10.36" duration="522.00" routeLength="3995.58" waitingTime="95.00" waitingCount="3" stopTime="0.00" timeLoss="136.25" rerouteNo="0" devices="tripinfo_1.9 emissions_1.9" vType="DEFAULT_VEHTYPE" speedFactor="0.93" vaporized="">
        <emissions CO_abs="28738.271713" CO2_abs="1129297.851270" HC_abs="156.609907" PMx_abs="17.695698" NOx_abs="448.439888" fuel_abs="360203.821714" electricity_abs="0"/>
    </tripinfo>
    <tripinfo id="1.13" depart="26.00" departLane="road_0_2_0_0" departPos="5.10" departSpeed="0.00" departDelay="0.00" arrival="545.00" arrivalLane="road_1_1_3_0" arrivalPos="586.40" arrivalSpeed="9.69" duration="519.00" routeLength="1952.23" waitingTime="301.00" waitingCount="1" stopTime="0.00" timeLoss="320.62" rerouteNo="0" devices="tripinfo_1.13 emissions_1.13" vType="DEFAULT_VEHTYPE" speedFactor="0.89" vaporized="">
        <emissions CO_abs="56192.887635" CO2_abs="1215370.350456" HC_abs="283.973303" PMx_abs="25.102978" NOx_abs="522.683553" fuel_abs="387666.825449" electricity_abs="0"/>
    </tripinfo>
    <tripinfo id="1.167" depart="334.00" departLane="road_5_2_2_0" departPos="5.10" departSpeed="0.00" departDelay="0.00" arrival="547.00" arrivalLane="road_4_3_0_0" arrivalPos="786.40" arrivalSpeed="10.10" duration="213.00" routeLength="2158.56" waitingTime="0.00" waitingCount="0" stopTime="0.00" timeLoss="16.34" rerouteNo="0" devices="tripinfo_1.167 emissions_1.167" vType="DEFAULT_VEHTYPE" speedFactor="1.00" vaporized="">
        <emissions CO_abs="5503.125286" CO2_abs="447254.851831" HC_abs="35.167046" PMx_abs="5.547281" NOx_abs="167.048152" fuel_abs="142655.607398" electricity_abs="0"/>
    </tripinfo>
    <tripinfo id="1.59" depart="118.00" departLane="road_3_5_3_0" departPos="5.10" departSpeed="0.00" departDelay="0.00" arrival="554.00" arrivalLane="road_1_2_2_0" arrivalPos="786.40" arrivalSpeed="10.17" duration="436.00" routeLength="4156.77" waitingTime="14.00" waitingCount="1" stopTime="0.00" timeLoss="47.64" rerouteNo="0" devices="tripinfo_1.59 emissions_1.59" vType="DEFAULT_VEHTYPE" speedFactor="0.97" vaporized="">
        <emissions CO_abs="13435.774600" CO2_abs="912801.426091" HC_abs="81.784630" PMx_abs="11.575752" NOx_abs="343.272829" fuel_abs="291146.559857" electricity_abs="0"/>
    </tripinfo>
    <tripinfo id="1.65" depart="130.00" departLane="road_1_0_1_0" departPos="5.10" departSpeed="0.00" departDelay="0.00" arrival="557.00" arrivalLane="road_1_1_2_0" arrivalPos="786.40" arrivalSpeed="11.48" duration="427.00" routeLength="1367.70" waitingTime="301.00" waitingCount="1" stopTime="0.00" timeLoss="313.55" rerouteNo="0" devices="tripinfo_1.65 emissions_1.65" vType="DEFAULT_VEHTYPE" speedFactor="1.09" vaporized="">
        <emissions CO_abs="52804.151415" CO2_abs="1067399.345270" HC_abs="265.166073" PMx_abs="23.445623" NOx_abs="466.132376" fuel_abs="340469.249027" electricity_abs="0"/>
    </tripinfo>
    <tripinfo id="1.185" depart="370.00" departLane="road_3_0_1_0" departPos="5.10" departSpeed="0.00" departDelay="0.00" arrival="561.00" arrivalLane="road_4_1_3_0" arrivalPos="586.40" arrivalSpeed="10.41" duration="191.00" routeLength="1958.56" waitingTime="0.00" waitingCount="0" stopTime="0.00" timeLoss="14.39" rerouteNo="0" devices="tripinfo_1.185 emissions_1.185" vType="DEFAULT_VEHTYPE" speedFactor="1.01" vaporized="">
        <emissions CO_abs="4855.824399" CO2_abs="407988.804408" HC_abs="31.336696" PMx_abs="5.070797" NOx_abs="152.270127" fuel_abs="130131.276378" electricity_abs="0"/>
    </tripinfo>
    <tripinfo id="1.22" depart="44.00" departLane="road_0_2_0_0" departPos="5.10" departSpeed="0.00" departDelay="0.00" arrival="562.00" arrivalLane="road_1_3_2_0" arrivalPos="786.40" arrivalSpeed="11.16" duration="518.00" routeLength="2165.01" waitingTime="301.00" waitingCount="1" stopTime="0.00" timeLoss="323.97" rerouteNo="0" devices="tripinfo_1.22 emissions_1.22" vType="DEFAULT_VEHTYPE" speedFactor="1.00" vaporized="">
        <emissions CO_abs="55902.002299" CO2_abs="1256027.931688" HC_abs="283.652387" PMx_abs="25.934785" NOx_abs="538.321054" fuel_abs="400634.169306" electricity_abs="0"/>
    </tripinfo>
    <tripinfo id="1.3" depart="6.00" departLane="road_5_3_2_0" departPos="5.10" departSpeed="0.00" departDelay="0.00" arrival="577.00" arrivalLane="road_1_1_3_0" arrivalPos="586.40" arrivalSpeed="10.14" duration="571.00" routeLength="4974.92" waitingTime="62.00" waitingCount="1" stopTime="0.00" timeLoss="100.05" rerouteNo="0" devices="tripinfo_1.3 emissions_1.3" vType="DEFAULT_VEHTYPE" speedFactor="0.95" vaporized="">
        <emissions CO_abs="23419.279023" CO2_abs="1191935.913275" HC_abs="133.560327" PMx_abs="16.128557" NOx_abs="455.218190" fuel_abs="380181.653967" electricity_abs="0"/>
    </tripinfo>
    <tripinfo id="1.68" depart="137.00" departLane="road_0_2_0_0" departPos="5.10" departSpeed="0.00" departDelay="1.00" arrival="600.00" arrivalLane="road_4_2_0_0" arrivalPos="786.40" arrivalSpeed="10.14" duration="463.00" routeLength="3995.58" waitingTime="31.00" waitingCount="3" stopTime="0.00" timeLoss="70.94" rerouteNo="0" devices="tripinfo_1.68 emissions_1.68" vType="DEFAULT_VEHTYPE" speedFactor="0.92" vaporized="">
        <emissions CO_abs="18219.082222" CO2_abs="953538.663674" HC_abs="104.562723" PMx_abs="13.272719" NOx_abs="368.089751" fuel_abs="304141.243012" electricity_abs="0"/>
    </tripinfo>
    <tripinfo id="1.52" depart="104.00" departLane="road_1_0_1_0" departPos="5.10" departSpeed="0.00" departDelay="0.00" arrival="601.00" arrivalLane="road_4_1_0_0" arrivalPos="786.40" arrivalSpeed="8.08" duration="497.00" routeLength="3779.94" waitingTime="6.00" waitingCount="1" stopTime="0.00" timeLoss="49.20" rerouteNo="0" devices="tripinfo_1.52 emissions_1.52" vType="DEFAULT_VEHTYPE" speedFactor="0.76" vaporized="">
        <emissions CO_abs="18904.360633" CO2_abs="916399.257864" HC_abs="106.634772" PMx_abs="12.172193" NOx_abs="353.622321" fuel_abs="292296.495318" electricity_abs="0"/>
    </tripinfo>
    <tripinfo id="1.49" depart="99.00" departLane="road_5_4_2_0" departPos="5.10" departSpeed="0.00" departDelay="1.00" arrival="603.00" arrivalLane="road_4_3_0_0" arrivalPos="786.40" arrivalSpeed="12.77" duration="504.00" routeLength="2165.01" waitingTime="312.00" waitingCount="2" stopTime="0.00" timeLoss="341.55" rerouteNo="0" devices="tripinfo_1.49 emissions_1.49" vType="DEFAULT_VEHTYPE" speedFactor="1.20" vaporized="">
        <emissions CO_abs="56735.829659" CO2_abs="1267823.424928" HC_abs="287.081752" PMx_abs="26.685209" NOx_abs="543.746165" fuel_abs="404396.289958" electricity_abs="0"/>
    </tripinfo>
    <tripinfo id="1.71" depart="142.00" departLane="road_1_0_1_0" departPos="5.10" departSpeed="0.00" departDelay="0.00" arrival="615.00" arrivalLane="road_4_3_0_0" arrivalPos="786.40" arrivalSpeed="11.65" duration="473.00" routeLength="4954.10" waitingTime="40.00" waitingCount="1" stopTime="0.00" timeLoss="77.50" rerouteNo="0" devices="tripinfo_1.71 emissions_1.71" vType="DEFAULT_VEHTYPE" speedFactor="1.13" vaporized="">
        <emissions CO_abs="16296.161021" CO2_abs="1095491.590827" HC_abs="98.086233" PMx_abs="15.077088" NOx_abs="413.307402" fuel_abs="349416.457699" electricity_abs="0"/>
    </tripinfo>
    <tripinfo id="1.41" depart="82.00" departLane="road_3_5_3_0" departPos="5.10" departSpeed="0.00" departDelay="0.00" arrival="619.00" arrivalLane="road_4_4_0_0" arrivalPos="786.40" arrivalSpeed="11.64" duration="537.00" routeLength="2167.87" waitingTime="335.00" waitingCount="2" stopTime="0.00" timeLoss="355.60" rerouteNo="0" devices="tripinfo_1.41 emissions_1.41" vType="DEFAULT_VEHTYPE" speedFactor="1.08" vaporized="">
        <emissions CO_abs="60310.698474" CO2_abs="1326012.709956" HC_abs="305.326062" PMx_abs="27.883089" NOx_abs="570.566566" fuel_abs="422957.480347" electricity_abs="0"/>
    </tripinfo>
    <tripinfo id="1.226" depart="452.00" departLane="road_2_5_3_0" departPos="5.10" departSpeed="0.00" departDelay="0.00" arrival="621.00" arrivalLane="road_1_4_1_0" arrivalPos="586.40" arrivalSpeed="12.05" duration="169.00" routeLength="1958.56" waitingTime="0.00" waitingCount="0" stopTime="0.00" timeLoss="12.57" rerouteNo="0" devices="tripinfo_1.226 emissions_1.226" vType="DEFAULT_VEHTYPE" speedFactor="1.14" vaporized="">
        <emissions CO_abs="3839.418371" CO2_abs="391302.424325" HC_abs="25.813953" PMx_abs="4.990549" NOx_abs="144.671242" fuel_abs="124808.466061" electricity_abs="0"/>
    </tripinfo>
    <tripinfo id="1.63" depart="127.00" departLane="road_0_1_0_0" departPos="5.10" departSpeed="0.00" departDelay="1.00" arrival="622.00" arrivalLane="road_4_4_0_0" arrivalPos="786.40" arrivalSpeed="11.50" duration="495.00" routeLength="5762.29" waitingTime="0.00" waitingCount="0" stopTime="0.00" timeLoss="32.66" rerouteNo="0" devices="tripinfo_1.63 emissions_1.63" vType="DEFAULT_VEHTYPE" speedFactor="1.13" vaporized="">
        <emissions CO_abs="9681.130764" CO2_abs="1087996.761776" HC_abs="67.858819" PMx_abs="13.261517" NOx_abs="398.459771" fuel_abs="347023.813653" electricity_abs="0"/>
    </tripinfo>
    <tripinfo id="1.191" depart="382.00" departLane="road_1_0_1_0" departPos="5.10" departSpeed="0.00" departDelay="0.00" arrival="622.00" arrivalLane="road_2_1_3_0" arrivalPos="586.40" arrivalSpeed="7.81" duration="240.00" routeLength="1958.56" waitingTime="0.00" waitingCount="0" stopTime="0.00" timeLoss="20.87" rerouteNo="0" devices="tripinfo_1.191 emissions_1.191" vType="DEFAULT_VEHTYPE" speedFactor="0.81" vaporized="">
        <emissions CO_abs="8391.617458" CO2_abs="461722.317540" HC_abs="48.527489" PMx_abs="5.711658" NOx_abs="174.987617" fuel_abs="147271.644986" electricity_abs="0"/>
    </tripinfo>
    <tripinfo id="1.208" depart="417.00" departLane="road_0_4_0_0" departPos="5.10" departSpeed="0.00" departDelay="1.00" arrival="632.00" arrivalLane="road_2_4_1_0" arrivalPos="586.40" arrivalSpeed="12.37" duration="215.00" routeLength="2197.72" waitingTime="27.00" waitingCount="1" stopTime="0.00" timeLoss="44.68" rerouteNo="0" devices="tripinfo_1.208 emissions_1.208" vType="DEFAULT_VEHTYPE" speedFactor="1.17" vaporized="">
        <emissions CO_abs="9326.187547" CO2_abs="526668.671576" HC_abs="53.976922" PMx_abs="8.097242" NOx_abs="204.126301" fuel_abs="167985.458628" electricity_abs="0"/>
    </tripinfo>
    <tripinfo id="1.214" depart="428.00" departLane="road_5_1_2_0" departPos="5.10" departSpeed="0.00" departDelay="0.00" arrival="637.00" arrivalLane="road_4_2_0_0" arrivalPos="786.40" arrivalSpeed="10.60" duration="209.00" routeLength="2158.56" waitingTime="0.00" waitingCount="0" stopTime="0.00" timeLoss="16.51" rerouteNo="0" devices="tripinfo_1.214 emissions_1.214" vType="DEFAULT_VEHTYPE" speedFactor="1.01" vaporized="">