<?xml version="1.0" encoding="UTF-8"?>

<!-- generated on 2025-10-24 03:15:23 by Eclipse SUMO sumo Version 1.22.0
<sumoConfiguration xmlns:xsi="http://www.w3.org/2001/XMLSchema-instance" xsi:noNamespaceSchemaLocation="http://sumo.dlr.de/xsd/sumoConfiguration.xsd">

    <input>
        <net-file value="./res/hangzhou/4_Phase.net.xml"/>
        <route-files value="./res/hangzhou/SUMO_anon_4_4_hangzhou_real.rou.xml"/>
    </input>

    <output>
        <queue-output value="./queues.xml"/>
        <queue-output.period value="3.0"/>
        <tripinfo-output value="./tripinfos.xml"/>
    </output>

    <time>
        <begin value="0"/>
        <end value="9999"/>
    </time>

    <processing>
        <threads value="10"/>
    </processing>

    <routing>
        <routing-algorithm value="astar"/>
    </routing>

    <report>
        <duration-log.statistics value="true"/>
    </report>

    <emissions>
        <device.emissions.probability value="1.0"/>
    </emissions>

    <traci_server>
        <remote-port value="55474"/>
    </traci_server>

    <random_number>
        <seed value="25"/>
    </random_number>

</sumoConfiguration>
-->

<tripinfos xmlns:xsi="http://www.w3.org/2001/XMLSchema-instance" xsi:noNamespaceSchemaLocation="http://sumo.dlr.de/xsd/tripinfo_file.xsd">
    <tripinfo id="28" depart="30.00" departLane="road_0_1_0_0" departPos="5.10" departSpeed="0.00" departDelay="0.00" arrival="172.00" arrivalLane="road_1_1_3_0" arrivalPos="586.40" arrivalSpeed="9.48" duration="142.00" routeLength="1376.73" waitingTime="0.00" waitingCount="0" stopTime="0.00" timeLoss="11.01" rerouteNo="0" devices="tripinfo_28 emissions_28" vType="DEFAULT_VEHTYPE@28" speedFactor="0.95" vaporized="">
        <emissions CO_abs="4056.726987" CO2_abs="302405.018518" HC_abs="25.291548" PMx_abs="3.738127" NOx_abs="113.326448" fuel_abs="96454.746574" electricity_abs="0"/>
    </tripinfo>
    <tripinfo id="38" depart="42.00" departLane="road_5_4_2_0" departPos="5.10" departSpeed="0.00" departDelay="0.00" arrival="176.00" arrivalLane="road_4_4_1_0" arrivalPos="586.40" arrivalSpeed="11.02" duration="134.00" routeLength="1376.73" waitingTime="0.00" waitingCount="0" stopTime="0.00" timeLoss="10.12" rerouteNo="0" devices="tripinfo_38 emissions_38" vType="DEFAULT_VEHTYPE" speedFactor="1.01" vaporized="">
        <emissions CO_abs="3691.887941" CO2_abs="297882.184871" HC_abs="23.573705" PMx_abs="3.894140" NOx_abs="112.501853" fuel_abs="95011.761230" electricity_abs="0"/>
    </tripinfo>
    <tripinfo id="48" depart="56.00" departLane="road_5_4_2_0" departPos="5.10" departSpeed="0.00" departDelay="0.00" arrival="188.00" arrivalLane="road_4_4_1_0" arrivalPos="586.40" arrivalSpeed="11.19" duration="132.00" routeLength="1376.73" waitingTime="0.00" waitingCount="0" stopTime="0.00" timeLoss="10.11" rerouteNo="0" devices="tripinfo_48 emissions_48" vType="DEFAULT_VEHTYPE" speedFactor="1.03" vaporized="">
        <emissions CO_abs="3602.412704" CO2_abs="301103.236534" HC_abs="23.243548" PMx_abs="3.943006" NOx_abs="113.575762" fuel_abs="96039.066459" electricity_abs="0"/>
    </tripinfo>
    <tripinfo id="0" depart="0.00" departLane="road_4_0_1_0" departPos="5.10" departSpeed="0.00" departDelay="0.00" arrival="197.00" arrivalLane="road_4_2_0_0" arrivalPos="786.40" arrivalSpeed="11.82" duration="197.00" routeLength="1976.90" waitingTime="12.00" waitingCount="1" stopTime="0.00" timeLoss="30.95" rerouteNo="0" devices="tripinfo_0 emissions_0" vType="DEFAULT_VEHTYPE" speedFactor="1.07" vaporized="">
        <emissions CO_abs="6944.183165" CO2_abs="458675.084328" HC_abs="41.908795" PMx_abs="6.084594" NOx_abs="172.713560" fuel_abs="146298.648065" electricity_abs="0"/>
    </tripinfo>
    <tripinfo id="60" depart="70.00" departLane="road_5_4_2_0" departPos="5.10" departSpeed="0.00" departDelay="0.00" arrival="198.00" arrivalLane="road_4_4_1_0" arrivalPos="586.40" arrivalSpeed="11.53" duration="128.00" routeLength="1376.73" waitingTime="0.00" waitingCount="0" stopTime="0.00" timeLoss="10.24" rerouteNo="0" devices="tripinfo_60 emissions_60" vType="DEFAULT_VEHTYPE@60" speedFactor="1.06" vaporized="">
        <emissions CO_abs="2989.480606" CO2_abs="291567.924295" HC_abs="20.106701" PMx_abs="3.386625" NOx_abs="106.374319" fuel_abs="92997.945846" electricity_abs="0"/>
    </tripinfo>
    <tripinfo id="8" depart="0.00" departLane="road_5_3_2_0" departPos="5.10" departSpeed="0.00" departDelay="0.00" arrival="203.00" arrivalLane="road_4_4_0_0" arrivalPos="786.40" arrivalSpeed="10.94" duration="203.00" routeLength="2158.56" waitingTime="0.00" waitingCount="0" stopTime="0.00" timeLoss="14.88" rerouteNo="2" devices="tripinfo_8 emissions_8" vType="DEFAULT_VEHTYPE@8" speedFactor="1.04" vaporized="">
        <emissions CO_abs="4934.089308" CO2_abs="439746.190225" HC_abs="32.338613" PMx_abs="5.575427" NOx_abs="164.087999" fuel_abs="140260.300864" electricity_abs="0"/>
    </tripinfo>
    <tripinfo id="75" depart="91.00" departLane="road_5_4_2_0" departPos="5.10" departSpeed="0.00" departDelay="0.00" arrival="217.00" arrivalLane="road_4_4_1_0" arrivalPos="586.40" arrivalSpeed="11.86" duration="126.00" routeLength="1376.73" waitingTime="0.00" waitingCount="0" stopTime="0.00" timeLoss="10.20" rerouteNo="0" devices="tripinfo_75 emissions_75" vType="DEFAULT_VEHTYPE" speedFactor="1.07" vaporized="">
        <emissions CO_abs="3264.586898" CO2_abs="295213.076557" HC_abs="21.459373" PMx_abs="3.826223" NOx_abs="110.478567" fuel_abs="94160.275662" electricity_abs="0"/>
    </tripinfo>
    <tripinfo id="84" depart="104.00" departLane="road_4_0_1_0" departPos="5.10" departSpeed="0.00" departDelay="0.00" arrival="228.00" arrivalLane="road_4_1_0_1" arrivalPos="786.40" arrivalSpeed="11.27" duration="124.00" routeLength="1376.73" waitingTime="0.00" waitingCount="0" stopTime="0.00" timeLoss="11.09" rerouteNo="0" devices="tripinfo_84 emissions_84" vType="DEFAULT_VEHTYPE" speedFactor="1.10" vaporized="">
        <emissions CO_abs="3082.939210" CO2_abs="289369.632807" HC_abs="20.508434" PMx_abs="3.763609" NOx_abs="108.245290" fuel_abs="92296.387471" electricity_abs="0"/>
    </tripinfo>
    <tripinfo id="66" depart="78.00" departLane="road_4_0_1_0" departPos="5.10" departSpeed="0.00" departDelay="0.00" arrival="230.00" arrivalLane="road_4_1_0_0" arrivalPos="786.40" arrivalSpeed="9.54" duration="152.00" routeLength="1376.73" waitingTime="0.00" waitingCount="0" stopTime="0.00" timeLoss="12.07" rerouteNo="0" devices="tripinfo_66 emissions_66" vType="DEFAULT_VEHTYPE" speedFactor="0.89" vaporized="">
        <emissions CO_abs="4672.865448" CO2_abs="307130.214272" HC_abs="28.180979" PMx_abs="3.812769" NOx_abs="115.792832" fuel_abs="97962.176299" electricity_abs="0"/>
    </tripinfo>
    <tripinfo id="47" depart="52.00" departLane="road_5_3_2_0" departPos="5.10" departSpeed="0.00" departDelay="0.00" arrival="232.00" arrivalLane="road_4_4_0_0" arrivalPos="786.40" arrivalSpeed="12.56" duration="180.00" routeLength="2158.56" waitingTime="0.00" waitingCount="0" stopTime="0.00" timeLoss="13.01" rerouteNo="3" devices="tripinfo_47 emissions_47" vType="DEFAULT_VEHTYPE@47" speedFactor="1.17" vaporized="">
        <emissions CO_abs="3812.015497" CO2_abs="430350.131578" HC_abs="26.450512" PMx_abs="5.335995" NOx_abs="157.407065" fuel_abs="137262.941371" electricity_abs="0"/>
    </tripinfo>
    <tripinfo id="69" depart="80.00" departLane="road_0_4_0_0" departPos="5.10" departSpeed="0.00" departDelay="0.00" arrival="235.00" arrivalLane="road_1_4_1_0" arrivalPos="586.40" arrivalSpeed="10.63" duration="155.00" routeLength="1397.55" waitingTime="21.00" waitingCount="1" stopTime="0.00" timeLoss="35.52" rerouteNo="0" devices="tripinfo_69 emissions_69" vType="DEFAULT_VEHTYPE@69" speedFactor="1.06" vaporized="">
        <emissions CO_abs="7235.703909" CO2_abs="354904.819556" HC_abs="41.008858" PMx_abs="5.329802" NOx_abs="138.209400" fuel_abs="113200.598530" electricity_abs="0"/>
    </tripinfo>
    <tripinfo id="93" depart="112.00" departLane="road_0_4_0_0" departPos="5.10" departSpeed="0.00" departDelay="0.00" arrival="248.00" arrivalLane="road_1_4_1_0" arrivalPos="586.40" arrivalSpeed="9.85" duration="136.00" routeLength="1397.55" waitingTime="0.00" waitingCount="0" stopTime="0.00" timeLoss="9.91" rerouteNo="0" devices="tripinfo_93 emissions_93" vType="DEFAULT_VEHTYPE@93" speedFactor="1.00" vaporized="">
        <emissions CO_abs="3476.193078" CO2_abs="282483.965066" HC_abs="22.233158" PMx_abs="3.623019" NOx_abs="106.289275" fuel_abs="90100.442890" electricity_abs="0"/>
    </tripinfo>
    <tripinfo id="11" depart="8.00" departLane="road_0_4_0_0" departPos="5.10" departSpeed="0.00" departDelay="0.00" arrival="255.00" arrivalLane="road_1_4_1_0" arrivalPos="586.40" arrivalSpeed="8.18" duration="247.00" routeLength="1397.55" waitingTime="61.00" waitingCount="1" stopTime="0.00" timeLoss="79.68" rerouteNo="0" devices="tripinfo_11 emissions_11" vType="DEFAULT_VEHTYPE@11" speedFactor="0.75" vaporized="">
        <emissions CO_abs="17361.261001" CO2_abs="509856.029002" HC_abs="90.668033" PMx_abs="8.745078" NOx_abs="209.042543" fuel_abs="162626.816978" electricity_abs="0"/>
    </tripinfo>
    <tripinfo id="106" depart="130.00" departLane="road_0_1_0_0" departPos="5.10" departSpeed="0.00" departDelay="0.00" arrival="258.00" arrivalLane="road_1_1_3_0" arrivalPos="586.40" arrivalSpeed="10.86" duration="128.00" routeLength="1376.73" waitingTime="0.00" waitingCount="0" stopTime="0.00" timeLoss="10.23" rerouteNo="0" devices="tripinfo_106 emissions_106" vType="DEFAULT_VEHTYPE" speedFactor="1.06" vaporized="">
        <emissions CO_abs="3363.456337" CO2_abs="298776.053343" HC_abs="22.069638" PMx_abs="3.836045" NOx_abs="111.881907" fuel_abs="95296.768959" electricity_abs="0"/>
    </tripinfo>
    <tripinfo id="25" depart="26.00" departLane="road_5_3_2_0" departPos="5.10" departSpeed="0.00" departDelay="0.00" arrival="261.00" arrivalLane="road_4_4_1_0" arrivalPos="586.40" arrivalSpeed="12.92" duration="235.00" routeLength="1979.60" waitingTime="51.00" waitingCount="1" stopTime="0.00" timeLoss="83.14" rerouteNo="0" devices="tripinfo_25 emissions_25" vType="DEFAULT_VEHTYPE" speedFactor="1.18" vaporized="">
        <emissions CO_abs="13698.569502" CO2_abs="565903.691446" HC_abs="75.013958" PMx_abs="9.402052" NOx_abs="225.942946" fuel_abs="180501.195814" electricity_abs="0"/>
    </tripinfo>
    <tripinfo id="3" depart="0.00" departLane="road_0_2_0_0" departPos="5.10" departSpeed="0.00" departDelay="0.00" arrival="274.00" arrivalLane="road_1_1_3_0" arrivalPos="586.40" arrivalSpeed="10.21" duration="274.00" routeLength="1979.60" waitingTime="64.00" waitingCount="1" stopTime="0.00" timeLoss="85.88" rerouteNo="0" devices="tripinfo_3 emissions_3" vType="DEFAULT_VEHTYPE" speedFactor="0.95" vaporized="">
        <emissions CO_abs="16958.608123" CO2_abs="604502.685407" HC_abs="91.053625" PMx_abs="9.965272" NOx_abs="243.061550" fuel_abs="192814.227156" electricity_abs="0"/>
    </tripinfo>
    <tripinfo id="112" depart="138.00" departLane="road_1_5_3_0" departPos="5.10" departSpeed="0.00" departDelay="0.00" arrival="274.00" arrivalLane="road_1_4_2_0" arrivalPos="786.40" arrivalSpeed="10.65" duration="136.00" routeLength="1376.73" waitingTime="0.00" waitingCount="0" stopTime="0.00" timeLoss="11.45" rerouteNo="0" devices="tripinfo_112 emissions_112" vType="DEFAULT_VEHTYPE" speedFactor="1.00" vaporized="">
        <emissions CO_abs="3640.047824" CO2_abs="296134.556685" HC_abs="23.259076" PMx_abs="3.629078" NOx_abs="110.267482" fuel_abs="94454.602625" electricity_abs="0"/>
    </tripinfo>
    <tripinfo id="36" depart="40.00" departLane="road_0_1_0_0" departPos="5.10" departSpeed="0.00" departDelay="0.00" arrival="280.00" arrivalLane="road_2_1_3_0" arrivalPos="586.40" arrivalSpeed="10.33" duration="240.00" routeLength="2176.90" waitingTime="27.00" waitingCount="1" stopTime="0.00" timeLoss="48.97" rerouteNo="2" devices="tripinfo_36 emissions_36" vType="DEFAULT_VEHTYPE@36" speedFactor="1.03" vaporized="">
        <emissions CO_abs="10317.535471" CO2_abs="532899.721817" HC_abs="59.091782" PMx_abs="7.765266" NOx_abs="206.239846" fuel_abs="169973.839991" electricity_abs="0"/>
    </tripinfo>
    <tripinfo id="70" depart="84.00" departLane="road_5_4_2_0" departPos="5.10" departSpeed="0.00" departDelay="0.00" arrival="281.00" arrivalLane="road_3_4_1_0" arrivalPos="586.40" arrivalSpeed="11.26" duration="197.00" routeLength="2176.90" waitingTime="0.00" waitingCount="0" stopTime="0.00" timeLoss="17.05" rerouteNo="0" devices="tripinfo_70 emissions_70" vType="DEFAULT_VEHTYPE" speedFactor="1.09" vaporized="">
        <emissions CO_abs="4393.015524" CO2_abs="435154.859039" HC_abs="29.476716" PMx_abs="5.259294" NOx_abs="159.591253" fuel_abs="138795.907698" electricity_abs="0"/>
    </tripinfo>
    <tripinfo id="15" depart="13.00" departLane="road_5_3_2_0" departPos="5.10" departSpeed="0.00" departDelay="0.00" arrival="283.00" arrivalLane="road_4_4_1_0" arrivalPos="586.40" arrivalSpeed="9.53" duration="270.00" routeLength="1979.60" waitingTime="34.00" waitingCount="1" stopTime="0.00" timeLoss="61.25" rerouteNo="0" devices="tripinfo_15 emissions_15" vType="DEFAULT_VEHTYPE" speedFactor="0.86" vaporized="">
        <emissions CO_abs="13789.638965" CO2_abs="543238.958169" HC_abs="75.145943" PMx_abs="8.412600" NOx_abs="216.122717" fuel_abs="173272.936855" electricity_abs="0"/>
    </tripinfo>
    <tripinfo id="73" depart="90.00" departLane="road_0_1_0_0" departPos="5.10" departSpeed="0.00" departDelay="0.00" arrival="289.00" arrivalLane="road_2_1_3_0" arrivalPos="586.40" arrivalSpeed="11.75" duration="199.00" routeLength="2176.90" waitingTime="0.00" waitingCount="0" stopTime="0.00" timeLoss="16.53" rerouteNo="0" devices="tripinfo_73 emissions_73" vType="DEFAULT_VEHTYPE" speedFactor="1.08" vaporized="">
        <emissions CO_abs="4656.914757" CO2_abs="443441.342904" HC_abs="30.996387" PMx_abs="5.482168" NOx_abs="163.902252" fuel_abs="141438.889259" electricity_abs="0"/>
    </tripinfo>
    <tripinfo id="129" depart="160.00" departLane="road_0_1_0_0" departPos="5.10" departSpeed="0.00" departDelay="0.00" arrival="291.00" arrivalLane="road_1_1_3_0" arrivalPos="586.40" arrivalSpeed="11.02" duration="131.00" routeLength="1376.73" waitingTime="0.00" waitingCount="0" stopTime="0.00" timeLoss="10.43" rerouteNo="0" devices="tripinfo_129 emissions_129" vType="DEFAULT_VEHTYPE" speedFactor="1.03" vaporized="">
        <emissions CO_abs="3433.016946" CO2_abs="288245.671750" HC_abs="22.159347" PMx_abs="3.735284" NOx_abs="108.445143" fuel_abs="91938.083867" electricity_abs="0"/>
    </tripinfo>
    <tripinfo id="139" depart="170.00" departLane="road_0_1_0_0" departPos="5.10" departSpeed="0.00" departDelay="0.00" arrival="302.00" arrivalLane="road_1_1_3_0" arrivalPos="586.40" arrivalSpeed="10.61" duration="132.00" routeLength="1376.73" waitingTime="0.00" waitingCount="0" stopTime="0.00" timeLoss="10.00" rerouteNo="0" devices="tripinfo_139 emissions_139" vType="DEFAULT_VEHTYPE@139" speedFactor="1.02" vaporized="">
        <emissions CO_abs="3333.707802" CO2_abs="291658.689708" HC_abs="21.766124" PMx_abs="3.558013" NOx_abs="108.251622" fuel_abs="93026.858265" electricity_abs="0"/>
    </tripinfo>
    <tripinfo id="145" depart="182.00" departLane="road_4_0_1_0" departPos="5.10" departSpeed="0.00" departDelay="0.00" arrival="327.00" arrivalLane="road_4_1_0_0" arrivalPos="786.40" arrivalSpeed="9.47" duration="145.00" routeLength="1376.73" waitingTime="0.00" waitingCount="0" stopTime="0.00" timeLoss="12.15" rerouteNo="0" devices="tripinfo_145 emissions_145" vType="DEFAULT_VEHTYPE@145" speedFactor="0.94" vaporized="">
        <emissions CO_abs="4140.655967" CO2_abs="296006.661177" HC_abs="25.515231" PMx_abs="3.632310" NOx_abs="110.897509" fuel_abs="94414.064979" electricity_abs="0"/>
    </tripinfo>
    <tripinfo id="6" depart="0.00" departLane="road_1_5_3_0" departPos="5.10" departSpeed="0.00" departDelay="0.00" arrival="329.00" arrivalLane="road_1_2_2_0" arrivalPos="786.40" arrivalSpeed="12.35" duration="329.00" routeLength="2577.07" waitingTime="101.00" waitingCount="2" stopTime="0.00" timeLoss="126.37" rerouteNo="0" devices="tripinfo_6 emissions_6" vType="DEFAULT_VEHTYPE" speedFactor="1.15" vaporized="">
        <emissions CO_abs="22785.567958" CO2_abs="810193.578404" HC_abs="121.787996" PMx_abs="14.031075" NOx_abs="326.392550" fuel_abs="258421.584870" electricity_abs="0"/>
    </tripinfo>
    <tripinfo id="155" depart="190.00" departLane="road_0_1_0_0" departPos="5.10" departSpeed="0.00" departDelay="0.00" arrival="331.00" arrivalLane="road_1_1_3_0" arrivalPos="586.40" arrivalSpeed="10.27" duration="141.00" routeLength="1376.73" waitingTime="0.00" waitingCount="0" stopTime="0.00" timeLoss="11.67" rerouteNo="0" devices="tripinfo_155 emissions_155" vType="DEFAULT_VEHTYPE" speedFactor="0.96" vaporized="">
        <emissions CO_abs="4092.116882" CO2_abs="298274.253671" HC_abs="25.393139" PMx_abs="3.882606" NOx_abs="113.099002" fuel_abs="95137.035343" electricity_abs="0"/>
    </tripinfo>
    <tripinfo id="154" depart="189.00" departLane="road_5_4_2_0" departPos="5.10" departSpeed="0.00" departDelay="0.00" arrival="335.00" arrivalLane="road_4_4_1_0" arrivalPos="586.40" arrivalSpeed="9.47" duration="146.00" routeLength="1376.73" waitingTime="0.00" waitingCount="0" stopTime="0.00" timeLoss="15.34" rerouteNo="0" devices="tripinfo_154 emissions_154" vType="DEFAULT_VEHTYPE" speedFactor="0.96" vaporized="">
        <emissions CO_abs="4367.932666" CO2_abs="301937.477123" HC_abs="26.728162" PMx_abs="3.964320" NOx_abs="114.853863" fuel_abs="96305.547063" electricity_abs="0"/>
    </tripinfo>
    <tripinfo id="98" depart="117.00" departLane="road_5_3_2_0" departPos="5.10" departSpeed="0.00" departDelay="0.00" arrival="337.00" arrivalLane="road_4_4_0_0" arrivalPos="786.40" arrivalSpeed="10.70" duration="220.00" routeLength="2158.56" waitingTime="0.00" waitingCount="0" stopTime="0.00" timeLoss="19.53" rerouteNo="0" devices="tripinfo_98 emissions_98" vType="DEFAULT_VEHTYPE" speedFactor="0.98" vaporized="">
        <emissions CO_abs="5822.566523" CO2_abs="456975.302362" HC_abs="36.827731" PMx_abs="5.645738" NOx_abs="170.806330" fuel_abs="145756.154022" electricity_abs="0"/>
    </tripinfo>
    <tripinfo id="95" depart="115.00" departLane="road_1_5_3_0" departPos="5.10" departSpeed="0.00" departDelay="0.00" arrival="339.00" arrivalLane="road_1_3_2_0" arrivalPos="786.40" arrivalSpeed="12.05" duration="224.00" routeLength="1976.90" waitingTime="44.00" waitingCount="1" stopTime="0.00" timeLoss="65.18" rerouteNo="2" devices="tripinfo_95 emissions_95" vType="DEFAULT_VEHTYPE@95" speedFactor="1.12" vaporized="">
        <emissions CO_abs="12434.562579" CO2_abs="547484.756562" HC_abs="68.879513" PMx_abs="8.786936" NOx_abs="216.348949" fuel_abs="174626.155895" electricity_abs="0"/>
    </tripinfo>
    <tripinfo id="105" depart="130.00" departLane="road_4_0_1_0" departPos="5.10" departSpeed="0.00" departDelay="0.00" arrival="341.00" arrivalLane="road_4_2_0_0" arrivalPos="786.40" arrivalSpeed="11.18" duration="211.00" routeLength="1976.90" waitingTime="18.00" waitingCount="1" stopTime="0.00" timeLoss="41.81" rerouteNo="0" devices="tripinfo_105 emissions_105" vType="DEFAULT_VEHTYPE" speedFactor="1.05" vaporized="">
        <emissions CO_abs="8448.769899" CO2_abs="471614.519243" HC_abs="49.194572" PMx_abs="6.725602" NOx_abs="181.286989" fuel_abs="150426.045326" electricity_abs="0"/>
    </tripinfo>
    <tripinfo id="141" depart="175.00" departLane="road_5_4_2_0" departPos="5.10" departSpeed="0.00" departDelay="0.00" arrival="343.00" arrivalLane="road_4_4_1_0" arrivalPos="586.40" arrivalSpeed="8.18" duration="168.00" routeLength="1376.73" waitingTime="0.00" waitingCount="0" stopTime="0.00" timeLoss="15.10" rerouteNo="0" devices="tripinfo_141 emissions_141" vType="DEFAULT_VEHTYPE@141" speedFactor="0.82" vaporized="">
        <emissions CO_abs="5930.497601" CO2_abs="328032.589013" HC_abs="34.387115" PMx_abs="4.327883" NOx_abs="126.044907" fuel_abs="104629.443616" electricity_abs="0"/>
    </tripinfo>
    <tripinfo id="78" depart="92.00" departLane="road_1_5_3_0" departPos="5.10" departSpeed="0.00" departDelay="0.00" arrival="346.00" arrivalLane="road_1_3_2_0" arrivalPos="786.40" arrivalSpeed="11.92" duration="254.00" routeLength="1976.90" waitingTime="60.00" waitingCount="1" stopTime="0.00" timeLoss="93.21" rerouteNo="0" devices="tripinfo_78 emissions_78" vType="DEFAULT_VEHTYPE" speedFactor="1.11" vaporized="">
        <emissions CO_abs="16309.508393" CO2_abs="627517.250831" HC_abs="88.584552" PMx_abs="10.690424" NOx_abs="253.207535" fuel_abs="200153.905305" electricity_abs="0"/>
    </tripinfo>
    <tripinfo id="58" depart="69.00" departLane="road_1_5_3_0" departPos="5.10" departSpeed="0.00" departDelay="0.00" arrival="350.00" arrivalLane="road_1_3_2_1" arrivalPos="786.40" arrivalSpeed="10.98" duration="281.00" routeLength="1976.90" waitingTime="82.00" waitingCount="1" stopTime="0.00" timeLoss="104.26" rerouteNo="2" devices="tripinfo_58 emissions_58" vType="DEFAULT_VEHTYPE@58" speedFactor="1.02" vaporized="">
        <emissions CO_abs="19872.862028" CO2_abs="679540.510950" HC_abs="106.141456" PMx_abs="11.898981" NOx_abs="277.376212" fuel_abs="216748.296967" electricity_abs="0"/>
    </tripinfo>
    <tripinfo id="31" depart="36.00" departLane="road_0_4_0_0" departPos="5.10" departSpeed="0.00" departDelay="0.00" arrival="351.00" arrivalLane="road_1_3_2_0" arrivalPos="786.40" arrivalSpeed="6.93" duration="315.00" routeLength="2158.56" waitingTime="0.00" waitingCount="0" stopTime="0.00" timeLoss="31.13" rerouteNo="0" devices="tripinfo_31 emissions_31" vType="DEFAULT_VEHTYPE" speedFactor="0.69" vaporized="">
        <emissions CO_abs="13179.333304" CO2_abs="568467.035616" HC_abs="72.787475" PMx_abs="7.990685" NOx_abs="223.204705" fuel_abs="181319.700892" electricity_abs="0"/>
    </tripinfo>
    <tripinfo id="126" depart="156.00" departLane="road_4_0_1_0" departPos="5.10" departSpeed="0.00" departDelay="0.00" arrival="358.00" arrivalLane="road_4_2_0_0" arrivalPos="786.40" arrivalSpeed="9.57" duration="202.00" routeLength="1976.90" waitingTime="0.00" waitingCount="0" stopTime="0.00" timeLoss="15.75" rerouteNo="2" devices="tripinfo_126 emissions_126" vType="DEFAULT_VEHTYPE@126" speedFactor="0.96" vaporized="">
        <emissions CO_abs="5398.134723" CO2_abs="418458.777272" HC_abs="34.000058" PMx_abs="5.055321" NOx_abs="155.818563" fuel_abs="133471.140055" electricity_abs="0"/>
    </tripinfo>
    <tripinfo id="27" depart="28.00" departLane="road_0_4_0_0" departPos="5.10" departSpeed="0.00" departDelay="0.00" arrival="360.00" arrivalLane="road_1_2_2_0" arrivalPos="786.40" arrivalSpeed="10.43" duration="332.00" routeLength="2761.43" waitingTime="42.00" waitingCount="1" stopTime="0.00" timeLoss="74.49" rerouteNo="0" devices="tripinfo_27 emissions_27" vType="DEFAULT_VEHTYPE" speedFactor="0.97" vaporized="">
        <emissions CO_abs="15462.829433" CO2_abs="708352.205194" HC_abs="86.503654" PMx_abs="10.338851" NOx_abs="275.526092" fuel_abs="225937.193624" electricity_abs="0"/>
    </tripinfo>
    <tripinfo id="130" depart="160.00" departLane="road_0_4_0_0" departPos="5.10" departSpeed="0.00" departDelay="0.00" arrival="363.00" arrivalLane="road_1_4_1_0" arrivalPos="586.40" arrivalSpeed="13.66" duration="203.00" routeLength="1397.55" waitingTime="89.00" waitingCount="1" stopTime="0.00" timeLoss="107.63" rerouteNo="0" devices="tripinfo_130 emissions_130" vType="DEFAULT_VEHTYPE@130" speedFactor="1.32" vaporized="">
        <emissions CO_abs="17986.409667" CO2_abs="537380.598937" HC_abs="93.698866" PMx_abs="10.140975" NOx_abs="220.951968" fuel_abs="171405.246968" electricity_abs="0"/>
    </tripinfo>
    <tripinfo id="170" depart="210.00" departLane="road_0_1_0_0" departPos="5.10" departSpeed="0.00" departDelay="0.00" arrival="363.00" arrivalLane="road_1_1_3_0" arrivalPos="586.40" arrivalSpeed="9.11" duration="153.00" routeLength="1376.73" waitingTime="0.00" waitingCount="0" stopTime="0.00" timeLoss="12.49" rerouteNo="0" devices="tripinfo_170 emissions_170" vType="DEFAULT_VEHTYPE@170" speedFactor="0.89" vaporized="">
        <emissions CO_abs="4522.655719" CO2_abs="296532.503949" HC_abs="27.268918" PMx_abs="3.736950" NOx_abs="112.154511" fuel_abs="94581.878066" electricity_abs="0"/>
    </tripinfo>
    <tripinfo id="29" depart="32.00" departLane="road_0_4_0_0" departPos="5.10" departSpeed="0.00" departDelay="0.00" arrival="374.00" arrivalLane="road_2_4_1_0" arrivalPos="586.40" arrivalSpeed="11.39" duration="342.00" routeLength="2197.72" waitingTime="116.00" waitingCount="2" stopTime="0.00" timeLoss="149.96" rerouteNo="0" devices="tripinfo_29 emissions_29" vType="DEFAULT_VEHTYPE" speedFactor="1.03" vaporized="">
        <emissions CO_abs="26552.563283" CO2_abs="804916.766103" HC_abs="139.415187" PMx_abs="14.574234" NOx_abs="331.144582" fuel_abs="256740.097265" electricity_abs="0"/>
    </tripinfo>
    <tripinfo id="42" depart="48.00" departLane="road_0_4_0_0" departPos="5.10" departSpeed="0.00" departDelay="0.00" arrival="380.00" arrivalLane="road_2_4_1_0" arrivalPos="586.40" arrivalSpeed="10.06" duration="332.00" routeLength="2197.72" waitingTime="92.00" waitingCount="2" stopTime="0.00" timeLoss="129.48" rerouteNo="0" devices="tripinfo_42 emissions_42" vType="DEFAULT_VEHTYPE" speedFactor="0.98" vaporized="">
        <emissions CO_abs="23133.212438" CO2_abs="746601.252750" HC_abs="122.397277" PMx_abs="12.499687" NOx_abs="300.878223" fuel_abs="238139.688722" electricity_abs="0"/>
    </tripinfo>
    <tripinfo id="115" depart="140.00" departLane="road_0_4_0_0" departPos="5.10" departSpeed="0.00" departDelay="0.00" arrival="380.00" arrivalLane="road_1_4_1_0" arrivalPos="586.40" arrivalSpeed="9.29" duration="240.00" routeLength="1397.55" waitingTime="90.00" waitingCount="1" stopTime="0.00" timeLoss="104.68" rerouteNo="0" devices="tripinfo_115 emissions_115" vType="DEFAULT_VEHTYPE@115" speedFactor="0.93" vaporized="">
        <emissions CO_abs="19478.374236" CO2_abs="545610.388362" HC_abs="101.259100" PMx_abs="10.090502" NOx_abs="226.864151" fuel_abs="174031.112232" electricity_abs="0"/>
    </tripinfo>
    <tripinfo id="56" depart="68.00" departLane="road_0_4_0_0" departPos="5.10" departSpeed="0.00" departDelay="0.00" arrival="381.00" arrivalLane="road_1_2_2_0" arrivalPos="786.40" arrivalSpeed="9.45" duration="313.00" routeLength="2758.73" waitingTime="0.00" waitingCount="0" stopTime="0.00" timeLoss="30.18" rerouteNo="3" devices="tripinfo_56 emissions_56" vType="DEFAULT_VEHTYPE@56" speedFactor="0.88" vaporized="">
        <emissions CO_abs="9853.309832" CO2_abs="620947.011475" HC_abs="58.890442" PMx_abs="8.151508" NOx_abs="237.374015" fuel_abs="198056.827551" electricity_abs="0"/>
    </tripinfo>
    <tripinfo id="192" depart="238.00" departLane="road_5_4_2_0" departPos="5.10" departSpeed="0.00" departDelay="0.00" arrival="382.00" arrivalLane="road_4_4_1_0" arrivalPos="586.40" arrivalSpeed="9.73" duration="144.00" routeLength="1376.73" waitingTime="0.00" waitingCount="0" stopTime="0.00" timeLoss="11.75" rerouteNo="0" devices="tripinfo_192 emissions_192" vType="DEFAULT_VEHTYPE" speedFactor="0.95" vaporized="">
        <emissions CO_abs="4290.526897" CO2_abs="304780.896558" HC_abs="26.437554" PMx_abs="3.961997" NOx_abs="115.634843" fuel_abs="97212.451428" electricity_abs="0"/>
    </tripinfo>
    <tripinfo id="193" depart="240.00" departLane="road_0_1_0_0" departPos="5.10" departSpeed="0.00" departDelay="0.00" arrival="383.00" arrivalLane="road_1_1_3_0" arrivalPos="586.40" arrivalSpeed="9.89" duration="143.00" routeLength="1376.73" waitingTime="0.00" waitingCount="0" stopTime="0.00" timeLoss="11.63" rerouteNo="0" devices="tripinfo_193 emissions_193" vType="DEFAULT_VEHTYPE" speedFactor="0.95" vaporized="">
        <emissions CO_abs="3903.626644" CO2_abs="285394.521073" HC_abs="24.221303" PMx_abs="3.604064" NOx_abs="107.486805" fuel_abs="91029.059225" electricity_abs="0"/>
    </tripinfo>
    <tripinfo id="196" depart="245.00" departLane="road_5_4_2_0" departPos="5.10" departSpeed="0.00" departDelay="0.00" arrival="383.00" arrivalLane="road_4_4_1_1" arrivalPos="586.40" arrivalSpeed="10.08" duration="138.00" routeLength="1376.73" waitingTime="0.00" waitingCount="0" stopTime="0.00" timeLoss="11.07" rerouteNo="0" devices="tripinfo_196 emissions_196" vType="DEFAULT_VEHTYPE@196" speedFactor="0.98" vaporized="">
        <emissions CO_abs="3651.253141" CO2_abs="298061.211420" HC_abs="23.329069" PMx_abs="3.532138" NOx_abs="110.186929" fuel_abs="95069.260190" electricity_abs="0"/>
    </tripinfo>
    <tripinfo id="97" depart="117.00" departLane="road_4_0_1_0" departPos="5.10" departSpeed="0.00" departDelay="0.00" arrival="385.00" arrivalLane="road_3_1_3_0" arrivalPos="586.40" arrivalSpeed="10.81" duration="268.00" routeLength="1994.86" waitingTime="63.00" waitingCount="1" stopTime="0.00" timeLoss="87.07" rerouteNo="0" devices="tripinfo_97 emissions_97" vType="DEFAULT_VEHTYPE" speedFactor="0.99" vaporized="">
        <emissions CO_abs="16386.440921" CO2_abs="593961.808276" HC_abs="88.205755" PMx_abs="9.684233" NOx_abs="237.379049" fuel_abs="189452.078288" electricity_abs="0"/>
    </tripinfo>
    <tripinfo id="134" depart="164.00" departLane="road_0_4_0_0" departPos="5.10" departSpeed="0.00" departDelay="0.00" arrival="385.00" arrivalLane="road_1_3_2_0" arrivalPos="786.40" arrivalSpeed="9.91" duration="221.00" routeLength="2158.56" waitingTime="0.00" waitingCount="0" stopTime="0.00" timeLoss="18.38" rerouteNo="3" devices="tripinfo_134 emissions_134" vType="DEFAULT_VEHTYPE@134" speedFactor="0.96" vaporized="">
        <emissions CO_abs="5927.699719" CO2_abs="446534.516892" HC_abs="37.076177" PMx_abs="5.594527" NOx_abs="167.687608" fuel_abs="142426.013927" electricity_abs="0"/>
    </tripinfo>