<?xml version="1.0" encoding="UTF-8"?>

<!-- generated on 2026-01-07 00:37:27 by Eclipse SUMO sumo Version 1.22.0
<sumoConfiguration xmlns:xsi="http://www.w3.org/2001/XMLSchema-instance" xsi:noNamespaceSchemaLocation="http://sumo.dlr.de/xsd/sumoConfiguration.xsd">

    <input>
        <net-file value="./res/hangzhou/4_Phase.net.xml"/>
        <route-files value="./res/hangzhou/SUMO_anon_4_4_hangzhou_real.rou.xml"/>
    </input>

    <output>
        <queue-output value="./queues.xml"/>
        <queue-output.period value="3.0"/>
        <tripinfo-output value="./tripinfos.xml"/>
    </output>

    <time>
        <begin value="0"/>
        <end value="1800"/>
    </time>

    <processing>
        <threads value="10"/>
    </processing>

    <routing>
        <routing-algorithm value="astar"/>
    </routing>

    <report>
        <duration-log.statistics value="true"/>
    </report>

    <emissions>
        <device.emissions.probability value="1.0"/>
    </emissions>

    <traci_server>
        <remote-port value="53322"/>
    </traci_server>

    <random_number>
        <seed value="25"/>
    </random_number>

</sumoConfiguration>
-->

<tripinfos xmlns:xsi="http://www.w3.org/2001/XMLSchema-instance" xsi:noNamespaceSchemaLocation="http://sumo.dlr.de/xsd/tripinfo_file.xsd">
    <tripinfo id="28" depart="30.00" departLane="road_0_1_0_0" departPos="5.10" departSpeed="0.00" departDelay="0.00" arrival="172.00" arrivalLane="road_1_1_3_0" arrivalPos="586.40" arrivalSpeed="9.48" duration="142.00" routeLength="1376.73" waitingTime="0.00" waitingCount="0" stopTime="0.00" timeLoss="11.05" rerouteNo="0" devices="tripinfo_28 emissions_28" vType="DEFAULT_VEHTYPE@28" speedFactor="0.95" vaporized="">
        <emissions CO_abs="4063.817984" CO2_abs="301866.513959" HC_abs="25.317518" PMx_abs="3.769088" NOx_abs="113.357872" fuel_abs="96282.955497" electricity_abs="0"/>
    </tripinfo>
    <tripinfo id="38" depart="42.00" departLane="road_5_4_2_0" departPos="5.10" departSpeed="0.00" departDelay="0.00" arrival="176.00" arrivalLane="road_4_4_1_0" arrivalPos="586.40" arrivalSpeed="11.02" duration="134.00" routeLength="1376.73" waitingTime="0.00" waitingCount="0" stopTime="0.00" timeLoss="10.16" rerouteNo="0" devices="tripinfo_38 emissions_38" vType="DEFAULT_VEHTYPE" speedFactor="1.01" vaporized="">
        <emissions CO_abs="3665.934833" CO2_abs="300209.467727" HC_abs="23.505553" PMx_abs="3.900120" NOx_abs="113.182044" fuel_abs="95754.062659" electricity_abs="0"/>
    </tripinfo>
    <tripinfo id="48" depart="56.00" departLane="road_5_4_2_0" departPos="5.10" departSpeed="0.00" departDelay="0.00" arrival="188.00" arrivalLane="road_4_4_1_0" arrivalPos="586.40" arrivalSpeed="11.19" duration="132.00" routeLength="1376.73" waitingTime="0.00" waitingCount="0" stopTime="0.00" timeLoss="9.71" rerouteNo="0" devices="tripinfo_48 emissions_48" vType="DEFAULT_VEHTYPE" speedFactor="1.03" vaporized="">
        <emissions CO_abs="3495.799288" CO2_abs="295396.835801" HC_abs="22.620276" PMx_abs="3.794476" NOx_abs="110.916990" fuel_abs="94219.029235" electricity_abs="0"/>
    </tripinfo>
    <tripinfo id="0" depart="0.00" departLane="road_4_0_1_0" departPos="5.10" departSpeed="0.00" departDelay="0.00" arrival="197.00" arrivalLane="road_4_2_0_0" arrivalPos="786.40" arrivalSpeed="11.52" duration="197.00" routeLength="1976.90" waitingTime="12.00" waitingCount="1" stopTime="0.00" timeLoss="30.72" rerouteNo="0" devices="tripinfo_0 emissions_0" vType="DEFAULT_VEHTYPE" speedFactor="1.07" vaporized="">
        <emissions CO_abs="7042.671994" CO2_abs="453224.554207" HC_abs="42.250777" PMx_abs="6.255421" NOx_abs="172.349515" fuel_abs="144559.981674" electricity_abs="0"/>
    </tripinfo>
    <tripinfo id="60" depart="70.00" departLane="road_5_4_2_0" departPos="5.10" departSpeed="0.00" departDelay="0.00" arrival="198.00" arrivalLane="road_4_4_1_0" arrivalPos="586.40" arrivalSpeed="11.53" duration="128.00" routeLength="1376.73" waitingTime="0.00" waitingCount="0" stopTime="0.00" timeLoss="10.21" rerouteNo="0" devices="tripinfo_60 emissions_60" vType="DEFAULT_VEHTYPE@60" speedFactor="1.06" vaporized="">
        <emissions CO_abs="3109.978101" CO2_abs="292322.164613" HC_abs="20.686624" PMx_abs="3.572752" NOx_abs="107.943542" fuel_abs="93238.370104" electricity_abs="0"/>
    </tripinfo>
    <tripinfo id="8" depart="0.00" departLane="road_5_3_2_0" departPos="5.10" departSpeed="0.00" departDelay="0.00" arrival="203.00" arrivalLane="road_4_4_0_0" arrivalPos="786.40" arrivalSpeed="10.94" duration="203.00" routeLength="2158.56" waitingTime="0.00" waitingCount="0" stopTime="0.00" timeLoss="14.88" rerouteNo="2" devices="tripinfo_8 emissions_8" vType="DEFAULT_VEHTYPE@8" speedFactor="1.04" vaporized="">
        <emissions CO_abs="4934.089308" CO2_abs="439746.190225" HC_abs="32.338613" PMx_abs="5.575427" NOx_abs="164.087999" fuel_abs="140260.300864" electricity_abs="0"/>
    </tripinfo>
    <tripinfo id="75" depart="91.00" departLane="road_5_4_2_0" departPos="5.10" departSpeed="0.00" departDelay="0.00" arrival="217.00" arrivalLane="road_4_4_1_0" arrivalPos="586.40" arrivalSpeed="11.54" duration="126.00" routeLength="1376.73" waitingTime="0.00" waitingCount="0" stopTime="0.00" timeLoss="9.86" rerouteNo="0" devices="tripinfo_75 emissions_75" vType="DEFAULT_VEHTYPE" speedFactor="1.07" vaporized="">
        <emissions CO_abs="3195.962198" CO2_abs="289892.569999" HC_abs="21.044932" PMx_abs="3.723597" NOx_abs="108.343307" fuel_abs="92463.286028" electricity_abs="0"/>
    </tripinfo>
    <tripinfo id="84" depart="104.00" departLane="road_4_0_1_0" departPos="5.10" departSpeed="0.00" departDelay="0.00" arrival="228.00" arrivalLane="road_4_1_0_0" arrivalPos="786.40" arrivalSpeed="10.96" duration="124.00" routeLength="1376.73" waitingTime="0.00" waitingCount="0" stopTime="0.00" timeLoss="10.49" rerouteNo="0" devices="tripinfo_84 emissions_84" vType="DEFAULT_VEHTYPE" speedFactor="1.10" vaporized="">
        <emissions CO_abs="3024.341145" CO2_abs="288080.247528" HC_abs="20.211002" PMx_abs="3.645597" NOx_abs="107.067388" fuel_abs="91885.217318" electricity_abs="0"/>
    </tripinfo>
    <tripinfo id="66" depart="78.00" departLane="road_4_0_1_0" departPos="5.10" departSpeed="0.00" departDelay="0.00" arrival="231.00" arrivalLane="road_4_1_0_0" arrivalPos="786.40" arrivalSpeed="9.61" duration="153.00" routeLength="1376.73" waitingTime="0.00" waitingCount="0" stopTime="0.00" timeLoss="13.16" rerouteNo="0" devices="tripinfo_66 emissions_66" vType="DEFAULT_VEHTYPE" speedFactor="0.89" vaporized="">
        <emissions CO_abs="4762.877321" CO2_abs="307236.837209" HC_abs="28.615155" PMx_abs="3.949339" NOx_abs="116.778818" fuel_abs="97996.082815" electricity_abs="0"/>
    </tripinfo>
    <tripinfo id="47" depart="52.00" departLane="road_5_3_2_0" departPos="5.10" departSpeed="0.00" departDelay="0.00" arrival="232.00" arrivalLane="road_4_4_0_0" arrivalPos="786.40" arrivalSpeed="12.56" duration="180.00" routeLength="2158.56" waitingTime="0.00" waitingCount="0" stopTime="0.00" timeLoss="13.01" rerouteNo="3" devices="tripinfo_47 emissions_47" vType="DEFAULT_VEHTYPE@47" speedFactor="1.17" vaporized="">
        <emissions CO_abs="3812.015497" CO2_abs="430350.131578" HC_abs="26.450512" PMx_abs="5.335995" NOx_abs="157.407065" fuel_abs="137262.941371" electricity_abs="0"/>
    </tripinfo>
    <tripinfo id="69" depart="80.00" departLane="road_0_4_0_0" departPos="5.10" departSpeed="0.00" departDelay="0.00" arrival="235.00" arrivalLane="road_1_4_1_0" arrivalPos="586.40" arrivalSpeed="11.25" duration="155.00" routeLength="1397.55" waitingTime="21.00" waitingCount="1" stopTime="0.00" timeLoss="35.56" rerouteNo="0" devices="tripinfo_69 emissions_69" vType="DEFAULT_VEHTYPE@69" speedFactor="1.06" vaporized="">
        <emissions CO_abs="7461.067550" CO2_abs="362633.650074" HC_abs="42.266526" PMx_abs="5.573698" NOx_abs="142.284930" fuel_abs="115665.665050" electricity_abs="0"/>
    </tripinfo>
    <tripinfo id="93" depart="112.00" departLane="road_0_4_0_0" departPos="5.10" departSpeed="0.00" departDelay="0.00" arrival="249.00" arrivalLane="road_1_4_1_0" arrivalPos="586.40" arrivalSpeed="10.63" duration="137.00" routeLength="1397.55" waitingTime="0.00" waitingCount="0" stopTime="0.00" timeLoss="10.00" rerouteNo="0" devices="tripinfo_93 emissions_93" vType="DEFAULT_VEHTYPE@93" speedFactor="1.00" vaporized="">
        <emissions CO_abs="3372.140383" CO2_abs="291384.111818" HC_abs="21.905780" PMx_abs="3.376529" NOx_abs="107.121531" fuel_abs="92939.498718" electricity_abs="0"/>
    </tripinfo>
    <tripinfo id="11" depart="8.00" departLane="road_0_4_0_0" departPos="5.10" departSpeed="0.00" departDelay="0.00" arrival="256.00" arrivalLane="road_1_4_1_0" arrivalPos="586.40" arrivalSpeed="8.12" duration="248.00" routeLength="1397.55" waitingTime="61.00" waitingCount="1" stopTime="0.00" timeLoss="80.26" rerouteNo="0" devices="tripinfo_11 emissions_11" vType="DEFAULT_VEHTYPE@11" speedFactor="0.75" vaporized="">
        <emissions CO_abs="17449.712308" CO2_abs="511757.858936" HC_abs="91.112075" PMx_abs="8.772526" NOx_abs="209.809972" fuel_abs="163233.455634" electricity_abs="0"/>
    </tripinfo>
    <tripinfo id="106" depart="130.00" departLane="road_0_1_0_0" departPos="5.10" departSpeed="0.00" departDelay="0.00" arrival="259.00" arrivalLane="road_1_1_3_0" arrivalPos="586.40" arrivalSpeed="10.62" duration="129.00" routeLength="1376.73" waitingTime="0.00" waitingCount="0" stopTime="0.00" timeLoss="10.88" rerouteNo="0" devices="tripinfo_106 emissions_106" vType="DEFAULT_VEHTYPE" speedFactor="1.06" vaporized="">
        <emissions CO_abs="3232.498702" CO2_abs="290235.156597" HC_abs="21.226286" PMx_abs="3.538215" NOx_abs="107.202818" fuel_abs="92572.811500" electricity_abs="0"/>
    </tripinfo>
    <tripinfo id="25" depart="26.00" departLane="road_5_3_2_0" departPos="5.10" departSpeed="0.00" departDelay="0.00" arrival="262.00" arrivalLane="road_4_4_1_0" arrivalPos="586.40" arrivalSpeed="12.70" duration="236.00" routeLength="1979.60" waitingTime="51.00" waitingCount="1" stopTime="0.00" timeLoss="83.47" rerouteNo="0" devices="tripinfo_25 emissions_25" vType="DEFAULT_VEHTYPE" speedFactor="1.18" vaporized="">
        <emissions CO_abs="13787.721314" CO2_abs="565787.074722" HC_abs="75.389076" PMx_abs="9.464289" NOx_abs="226.328313" fuel_abs="180463.978356" electricity_abs="0"/>
    </tripinfo>
    <tripinfo id="3" depart="0.00" departLane="road_0_2_0_0" departPos="5.10" departSpeed="0.00" departDelay="0.00" arrival="273.00" arrivalLane="road_1_1_3_0" arrivalPos="586.40" arrivalSpeed="9.70" duration="273.00" routeLength="1979.60" waitingTime="64.00" waitingCount="1" stopTime="0.00" timeLoss="85.43" rerouteNo="0" devices="tripinfo_3 emissions_3" vType="DEFAULT_VEHTYPE" speedFactor="0.95" vaporized="">
        <emissions CO_abs="16879.388852" CO2_abs="602154.005845" HC_abs="90.640226" PMx_abs="9.927637" NOx_abs="242.144623" fuel_abs="192065.071420" electricity_abs="0"/>
    </tripinfo>
    <tripinfo id="112" depart="138.00" departLane="road_1_5_3_0" departPos="5.10" departSpeed="0.00" departDelay="0.00" arrival="274.00" arrivalLane="road_1_4_2_0" arrivalPos="786.40" arrivalSpeed="10.65" duration="136.00" routeLength="1376.73" waitingTime="0.00" waitingCount="0" stopTime="0.00" timeLoss="11.35" rerouteNo="0" devices="tripinfo_112 emissions_112" vType="DEFAULT_VEHTYPE" speedFactor="1.00" vaporized="">
        <emissions CO_abs="3577.711410" CO2_abs="292718.807456" HC_abs="22.904043" PMx_abs="3.612562" NOx_abs="109.160062" fuel_abs="93365.078125" electricity_abs="0"/>
    </tripinfo>
    <tripinfo id="70" depart="84.00" departLane="road_5_4_2_0" departPos="5.10" departSpeed="0.00" departDelay="0.00" arrival="278.00" arrivalLane="road_3_4_1_0" arrivalPos="586.40" arrivalSpeed="11.26" duration="194.00" routeLength="2176.90" waitingTime="0.00" waitingCount="0" stopTime="0.00" timeLoss="13.90" rerouteNo="0" devices="tripinfo_70 emissions_70" vType="DEFAULT_VEHTYPE" speedFactor="1.09" vaporized="">
        <emissions CO_abs="4185.760405" CO2_abs="426825.177959" HC_abs="28.225259" PMx_abs="5.143908" NOx_abs="156.144629" fuel_abs="136139.039398" electricity_abs="0"/>
    </tripinfo>
    <tripinfo id="15" depart="13.00" departLane="road_5_3_2_0" departPos="5.10" departSpeed="0.00" departDelay="0.00" arrival="283.00" arrivalLane="road_4_4_1_0" arrivalPos="586.40" arrivalSpeed="8.77" duration="270.00" routeLength="1979.60" waitingTime="34.00" waitingCount="1" stopTime="0.00" timeLoss="61.46" rerouteNo="0" devices="tripinfo_15 emissions_15" vType="DEFAULT_VEHTYPE" speedFactor="0.86" vaporized="">
        <emissions CO_abs="13760.519165" CO2_abs="539200.038782" HC_abs="74.941512" PMx_abs="8.467291" NOx_abs="215.296666" fuel_abs="171984.584323" electricity_abs="0"/>
    </tripinfo>
    <tripinfo id="73" depart="90.00" departLane="road_0_1_0_0" departPos="5.10" departSpeed="0.00" departDelay="0.00" arrival="291.00" arrivalLane="road_2_1_3_0" arrivalPos="586.40" arrivalSpeed="11.77" duration="201.00" routeLength="2176.90" waitingTime="0.00" waitingCount="0" stopTime="0.00" timeLoss="19.30" rerouteNo="0" devices="tripinfo_73 emissions_73" vType="DEFAULT_VEHTYPE" speedFactor="1.08" vaporized="">
        <emissions CO_abs="4841.241019" CO2_abs="451895.463924" HC_abs="32.147530" PMx_abs="5.570481" NOx_abs="167.350615" fuel_abs="144135.438096" electricity_abs="0"/>
    </tripinfo>
    <tripinfo id="129" depart="160.00" departLane="road_0_1_0_0" departPos="5.10" departSpeed="0.00" departDelay="0.00" arrival="291.00" arrivalLane="road_1_1_3_0" arrivalPos="586.40" arrivalSpeed="10.53" duration="131.00" routeLength="1376.73" waitingTime="0.00" waitingCount="0" stopTime="0.00" timeLoss="10.37" rerouteNo="0" devices="tripinfo_129 emissions_129" vType="DEFAULT_VEHTYPE" speedFactor="1.03" vaporized="">
        <emissions CO_abs="3446.707683" CO2_abs="280247.463243" HC_abs="22.067557" PMx_abs="3.791113" NOx_abs="106.575007" fuel_abs="89386.876773" electricity_abs="0"/>
    </tripinfo>
    <tripinfo id="139" depart="170.00" departLane="road_0_1_0_0" departPos="5.10" departSpeed="0.00" departDelay="0.00" arrival="303.00" arrivalLane="road_1_1_3_0" arrivalPos="586.40" arrivalSpeed="11.33" duration="133.00" routeLength="1376.73" waitingTime="0.00" waitingCount="0" stopTime="0.00" timeLoss="10.58" rerouteNo="0" devices="tripinfo_139 emissions_139" vType="DEFAULT_VEHTYPE@139" speedFactor="1.02" vaporized="">
        <emissions CO_abs="3505.664186" CO2_abs="291169.430033" HC_abs="22.556086" PMx_abs="3.675208" NOx_abs="108.914511" fuel_abs="92870.778551" electricity_abs="0"/>
    </tripinfo>
    <tripinfo id="68" depart="80.00" departLane="road_0_1_0_0" departPos="5.10" departSpeed="0.00" departDelay="0.00" arrival="312.00" arrivalLane="road_2_1_3_0" arrivalPos="586.40" arrivalSpeed="9.41" duration="232.00" routeLength="2176.90" waitingTime="0.00" waitingCount="0" stopTime="0.00" timeLoss="17.40" rerouteNo="2" devices="tripinfo_68 emissions_68" vType="DEFAULT_VEHTYPE@68" speedFactor="0.92" vaporized="">
        <emissions CO_abs="6478.537936" CO2_abs="457737.450680" HC_abs="39.798600" PMx_abs="5.629778" NOx_abs="171.791794" fuel_abs="145999.610278" electricity_abs="0"/>
    </tripinfo>
    <tripinfo id="145" depart="182.00" departLane="road_4_0_1_0" departPos="5.10" departSpeed="0.00" departDelay="0.00" arrival="326.00" arrivalLane="road_4_1_0_0" arrivalPos="786.40" arrivalSpeed="9.58" duration="144.00" routeLength="1376.73" waitingTime="0.00" waitingCount="0" stopTime="0.00" timeLoss="10.69" rerouteNo="0" devices="tripinfo_145 emissions_145" vType="DEFAULT_VEHTYPE@145" speedFactor="0.94" vaporized="">
        <emissions CO_abs="4263.846555" CO2_abs="308945.037597" HC_abs="26.396560" PMx_abs="3.930143" NOx_abs="116.638939" fuel_abs="98540.684654" electricity_abs="0"/>
    </tripinfo>
    <tripinfo id="6" depart="0.00" departLane="road_1_5_3_0" departPos="5.10" departSpeed="0.00" departDelay="0.00" arrival="329.00" arrivalLane="road_1_2_2_0" arrivalPos="786.40" arrivalSpeed="11.60" duration="329.00" routeLength="2577.07" waitingTime="101.00" waitingCount="2" stopTime="0.00" timeLoss="125.88" rerouteNo="0" devices="tripinfo_6 emissions_6" vType="DEFAULT_VEHTYPE" speedFactor="1.15" vaporized="">
        <emissions CO_abs="22606.050773" CO2_abs="809730.459406" HC_abs="121.013210" PMx_abs="13.874375" NOx_abs="325.369568" fuel_abs="258273.918563" electricity_abs="0"/>
    </tripinfo>
    <tripinfo id="155" depart="190.00" departLane="road_0_1_0_0" departPos="5.10" departSpeed="0.00" departDelay="0.00" arrival="332.00" arrivalLane="road_1_1_3_0" arrivalPos="586.40" arrivalSpeed="10.27" duration="142.00" routeLength="1376.73" waitingTime="0.00" waitingCount="0" stopTime="0.00" timeLoss="12.85" rerouteNo="0" devices="tripinfo_155 emissions_155" vType="DEFAULT_VEHTYPE" speedFactor="0.96" vaporized="">
        <emissions CO_abs="4065.314684" CO2_abs="292196.161747" HC_abs="25.128357" PMx_abs="3.789573" NOx_abs="110.700943" fuel_abs="93198.431096" electricity_abs="0"/>
    </tripinfo>
    <tripinfo id="154" depart="189.00" departLane="road_5_4_2_0" departPos="5.10" departSpeed="0.00" departDelay="0.00" arrival="335.00" arrivalLane="road_4_4_1_0" arrivalPos="586.40" arrivalSpeed="10.08" duration="146.00" routeLength="1376.73" waitingTime="0.00" waitingCount="0" stopTime="0.00" timeLoss="15.85" rerouteNo="0" devices="tripinfo_154 emissions_154" vType="DEFAULT_VEHTYPE" speedFactor="0.96" vaporized="">
        <emissions CO_abs="4422.824537" CO2_abs="301054.337455" HC_abs="26.964452" PMx_abs="3.995642" NOx_abs="114.837677" fuel_abs="96023.851431" electricity_abs="0"/>
    </tripinfo>
    <tripinfo id="98" depart="117.00" departLane="road_5_3_2_0" departPos="5.10" departSpeed="0.00" departDelay="0.00" arrival="337.00" arrivalLane="road_4_4_0_0" arrivalPos="786.40" arrivalSpeed="10.70" duration="220.00" routeLength="2158.56" waitingTime="0.00" waitingCount="0" stopTime="0.00" timeLoss="19.57" rerouteNo="0" devices="tripinfo_98 emissions_98" vType="DEFAULT_VEHTYPE" speedFactor="0.98" vaporized="">
        <emissions CO_abs="5893.167800" CO2_abs="452494.999077" HC_abs="37.060127" PMx_abs="5.679873" NOx_abs="169.819187" fuel_abs="144327.093680" electricity_abs="0"/>
    </tripinfo>
    <tripinfo id="95" depart="115.00" departLane="road_1_5_3_0" departPos="5.10" departSpeed="0.00" departDelay="0.00" arrival="342.00" arrivalLane="road_1_3_2_0" arrivalPos="786.40" arrivalSpeed="11.44" duration="227.00" routeLength="1976.90" waitingTime="44.00" waitingCount="1" stopTime="0.00" timeLoss="67.69" rerouteNo="2" devices="tripinfo_95 emissions_95" vType="DEFAULT_VEHTYPE@95" speedFactor="1.12" vaporized="">
        <emissions CO_abs="12520.545137" CO2_abs="551123.642631" HC_abs="69.431378" PMx_abs="8.806957" NOx_abs="217.716392" fuel_abs="175786.855343" electricity_abs="0"/>
    </tripinfo>
    <tripinfo id="141" depart="175.00" departLane="road_5_4_2_0" departPos="5.10" departSpeed="0.00" departDelay="0.00" arrival="343.00" arrivalLane="road_4_4_1_0" arrivalPos="586.40" arrivalSpeed="8.76" duration="168.00" routeLength="1376.73" waitingTime="0.00" waitingCount="0" stopTime="0.00" timeLoss="15.19" rerouteNo="0" devices="tripinfo_141 emissions_141" vType="DEFAULT_VEHTYPE@141" speedFactor="0.82" vaporized="">
        <emissions CO_abs="6020.363852" CO2_abs="332048.290530" HC_abs="34.861587" PMx_abs="4.253395" NOx_abs="126.763514" fuel_abs="105910.449376" electricity_abs="0"/>
    </tripinfo>
    <tripinfo id="105" depart="130.00" departLane="road_4_0_1_0" departPos="5.10" departSpeed="0.00" departDelay="0.00" arrival="345.00" arrivalLane="road_4_2_0_0" arrivalPos="786.40" arrivalSpeed="11.31" duration="215.00" routeLength="1976.90" waitingTime="19.00" waitingCount="1" stopTime="0.00" timeLoss="45.28" rerouteNo="0" devices="tripinfo_105 emissions_105" vType="DEFAULT_VEHTYPE" speedFactor="1.05" vaporized="">
        <emissions CO_abs="9262.502728" CO2_abs="492389.852003" HC_abs="53.398230" PMx_abs="7.338828" NOx_abs="191.620191" fuel_abs="157052.431146" electricity_abs="0"/>
    </tripinfo>
    <tripinfo id="78" depart="92.00" departLane="road_1_5_3_0" departPos="5.10" departSpeed="0.00" departDelay="0.00" arrival="346.00" arrivalLane="road_1_3_2_0" arrivalPos="786.40" arrivalSpeed="11.12" duration="254.00" routeLength="1976.90" waitingTime="60.00" waitingCount="1" stopTime="0.00" timeLoss="93.54" rerouteNo="0" devices="tripinfo_78 emissions_78" vType="DEFAULT_VEHTYPE" speedFactor="1.11" vaporized="">
        <emissions CO_abs="16071.199886" CO2_abs="613474.694868" HC_abs="87.090941" PMx_abs="10.475474" NOx_abs="247.386648" fuel_abs="195674.948740" electricity_abs="0"/>
    </tripinfo>
    <tripinfo id="58" depart="69.00" departLane="road_1_5_3_0" departPos="5.10" departSpeed="0.00" departDelay="0.00" arrival="348.00" arrivalLane="road_1_3_2_1" arrivalPos="786.40" arrivalSpeed="10.86" duration="279.00" routeLength="1976.90" waitingTime="80.00" waitingCount="1" stopTime="0.00" timeLoss="103.23" rerouteNo="2" devices="tripinfo_58 emissions_58" vType="DEFAULT_VEHTYPE@58" speedFactor="1.02" vaporized="">
        <emissions CO_abs="19184.765499" CO2_abs="665234.752475" HC_abs="102.611250" PMx_abs="11.167516" NOx_abs="268.079376" fuel_abs="212185.696198" electricity_abs="0"/>
    </tripinfo>
    <tripinfo id="31" depart="36.00" departLane="road_0_4_0_0" departPos="5.10" departSpeed="0.00" departDelay="0.00" arrival="351.00" arrivalLane="road_1_3_2_0" arrivalPos="786.40" arrivalSpeed="6.87" duration="315.00" routeLength="2158.56" waitingTime="0.00" waitingCount="0" stopTime="0.00" timeLoss="31.07" rerouteNo="0" devices="tripinfo_31 emissions_31" vType="DEFAULT_VEHTYPE" speedFactor="0.69" vaporized="">
        <emissions CO_abs="13138.210705" CO2_abs="563432.476452" HC_abs="72.483883" PMx_abs="7.914544" NOx_abs="221.183146" fuel_abs="179713.919880" electricity_abs="0"/>
    </tripinfo>
    <tripinfo id="27" depart="28.00" departLane="road_0_4_0_0" departPos="5.10" departSpeed="0.00" departDelay="0.00" arrival="358.00" arrivalLane="road_1_2_2_0" arrivalPos="786.40" arrivalSpeed="9.88" duration="330.00" routeLength="2761.43" waitingTime="41.00" waitingCount="1" stopTime="0.00" timeLoss="72.71" rerouteNo="0" devices="tripinfo_27 emissions_27" vType="DEFAULT_VEHTYPE" speedFactor="0.97" vaporized="">
        <emissions CO_abs="15364.941389" CO2_abs="709460.482461" HC_abs="86.109778" PMx_abs="10.485809" NOx_abs="276.774234" fuel_abs="226290.473881" electricity_abs="0"/>
    </tripinfo>
    <tripinfo id="126" depart="156.00" departLane="road_4_0_1_0" departPos="5.10" departSpeed="0.00" departDelay="0.00" arrival="359.00" arrivalLane="road_4_2_0_0" arrivalPos="786.40" arrivalSpeed="9.64" duration="203.00" routeLength="1976.90" waitingTime="0.00" waitingCount="0" stopTime="0.00" timeLoss="16.51" rerouteNo="2" devices="tripinfo_126 emissions_126" vType="DEFAULT_VEHTYPE@126" speedFactor="0.96" vaporized="">
        <emissions CO_abs="5553.387624" CO2_abs="418497.539791" HC_abs="34.731782" PMx_abs="5.205841" NOx_abs="156.890264" fuel_abs="133483.422845" electricity_abs="0"/>
    </tripinfo>
    <tripinfo id="130" depart="160.00" departLane="road_0_4_0_0" departPos="5.10" departSpeed="0.00" departDelay="0.00" arrival="363.00" arrivalLane="road_1_4_1_0" arrivalPos="586.40" arrivalSpeed="14.51" duration="203.00" routeLength="1397.55" waitingTime="89.00" waitingCount="1" stopTime="0.00" timeLoss="107.68" rerouteNo="0" devices="tripinfo_130 emissions_130" vType="DEFAULT_VEHTYPE@130" speedFactor="1.32" vaporized="">
        <emissions CO_abs="18104.493268" CO2_abs="541853.336578" HC_abs="94.131171" PMx_abs="10.192459" NOx_abs="222.610981" fuel_abs="172831.852916" electricity_abs="0"/>
    </tripinfo>
    <tripinfo id="170" depart="210.00" departLane="road_0_1_0_0" departPos="5.10" departSpeed="0.00" departDelay="0.00" arrival="363.00" arrivalLane="road_1_1_3_0" arrivalPos="586.40" arrivalSpeed="8.70" duration="153.00" routeLength="1376.73" waitingTime="0.00" waitingCount="0" stopTime="0.00" timeLoss="13.30" rerouteNo="0" devices="tripinfo_170 emissions_170" vType="DEFAULT_VEHTYPE@170" speedFactor="0.89" vaporized="">
        <emissions CO_abs="4758.496467" CO2_abs="305254.478102" HC_abs="28.561071" PMx_abs="3.981373" NOx_abs="116.381895" fuel_abs="97363.743303" electricity_abs="0"/>
    </tripinfo>
    <tripinfo id="29" depart="32.00" departLane="road_0_4_0_0" departPos="5.10" departSpeed="0.00" departDelay="0.00" arrival="374.00" arrivalLane="road_2_4_1_0" arrivalPos="586.40" arrivalSpeed="10.43" duration="342.00" routeLength="2197.72" waitingTime="116.00" waitingCount="2" stopTime="0.00" timeLoss="149.50" rerouteNo="0" devices="tripinfo_29 emissions_29" vType="DEFAULT_VEHTYPE" speedFactor="1.03" vaporized="">
        <emissions CO_abs="26860.657885" CO2_abs="815819.945031" HC_abs="141.093391" PMx_abs="14.779863" NOx_abs="335.664661" fuel_abs="260217.788814" electricity_abs="0"/>
    </tripinfo>
    <tripinfo id="42" depart="48.00" departLane="road_0_4_0_0" departPos="5.10" departSpeed="0.00" departDelay="0.00" arrival="380.00" arrivalLane="road_2_4_1_0" arrivalPos="586.40" arrivalSpeed="10.25" duration="332.00" routeLength="2197.72" waitingTime="90.00" waitingCount="2" stopTime="0.00" timeLoss="129.71" rerouteNo="0" devices="tripinfo_42 emissions_42" vType="DEFAULT_VEHTYPE" speedFactor="0.98" vaporized="">
        <emissions CO_abs="22784.165202" CO2_abs="733031.821107" HC_abs="120.525932" PMx_abs="12.439102" NOx_abs="296.655434" fuel_abs="233811.356426" electricity_abs="0"/>
    </tripinfo>
    <tripinfo id="115" depart="140.00" departLane="road_0_4_0_0" departPos="5.10" departSpeed="0.00" departDelay="0.00" arrival="380.00" arrivalLane="road_1_4_1_0" arrivalPos="586.40" arrivalSpeed="10.15" duration="240.00" routeLength="1397.55" waitingTime="89.00" waitingCount="1" stopTime="0.00" timeLoss="104.54" rerouteNo="0" devices="tripinfo_115 emissions_115" vType="DEFAULT_VEHTYPE@115" speedFactor="0.93" vaporized="">
        <emissions CO_abs="19626.809730" CO2_abs="549254.948526" HC_abs="102.021624" PMx_abs="10.178269" NOx_abs="228.456070" fuel_abs="175193.598757" electricity_abs="0"/>
    </tripinfo>
    <tripinfo id="97" depart="117.00" departLane="road_4_0_1_0" departPos="5.10" departSpeed="0.00" departDelay="0.00" arrival="382.00" arrivalLane="road_3_1_3_0" arrivalPos="586.40" arrivalSpeed="10.69" duration="265.00" routeLength="1994.86" waitingTime="67.00" waitingCount="1" stopTime="0.00" timeLoss="84.01" rerouteNo="0" devices="tripinfo_97 emissions_97" vType="DEFAULT_VEHTYPE" speedFactor="0.99" vaporized="">
        <emissions CO_abs="16414.284543" CO2_abs="596921.556698" HC_abs="88.390902" PMx_abs="9.693902" NOx_abs="238.248875" fuel_abs="190396.154090" electricity_abs="0"/>
    </tripinfo>
    <tripinfo id="192" depart="238.00" departLane="road_5_4_2_0" departPos="5.10" departSpeed="0.00" departDelay="0.00" arrival="382.00" arrivalLane="road_4_4_1_0" arrivalPos="586.40" arrivalSpeed="9.72" duration="144.00" routeLength="1376.73" waitingTime="0.00" waitingCount="0" stopTime="0.00" timeLoss="11.95" rerouteNo="0" devices="tripinfo_192 emissions_192" vType="DEFAULT_VEHTYPE" speedFactor="0.95" vaporized="">
        <emissions CO_abs="4199.818839" CO2_abs="301659.812600" HC_abs="25.918965" PMx_abs="3.729104" NOx_abs="113.140757" fuel_abs="96217.149267" electricity_abs="0"/>
    </tripinfo>
    <tripinfo id="196" depart="245.00" departLane="road_5_4_2_0" departPos="5.10" departSpeed="0.00" departDelay="0.00" arrival="383.00" arrivalLane="road_4_4_1_1" arrivalPos="586.40" arrivalSpeed="10.68" duration="138.00" routeLength="1376.73" waitingTime="0.00" waitingCount="0" stopTime="0.00" timeLoss="11.08" rerouteNo="0" devices="tripinfo_196 emissions_196" vType="DEFAULT_VEHTYPE@196" speedFactor="0.98" vaporized="">
        <emissions CO_abs="3662.056584" CO2_abs="294094.491825" HC_abs="23.301465" PMx_abs="3.547916" NOx_abs="109.259114" fuel_abs="93803.987144" electricity_abs="0"/>
    </tripinfo>
    <tripinfo id="134" depart="164.00" departLane="road_0_4_0_0" departPos="5.10" departSpeed="0.00" departDelay="0.00" arrival="384.00" arrivalLane="road_1_3_2_0" arrivalPos="786.40" arrivalSpeed="10.51" duration="220.00" routeLength="2158.56" waitingTime="0.00" waitingCount="0" stopTime="0.00" timeLoss="16.88" rerouteNo="3" devices="tripinfo_134 emissions_134" vType="DEFAULT_VEHTYPE@134" speedFactor="0.96" vaporized="">
        <emissions CO_abs="5945.072445" CO2_abs="457852.245263" HC_abs="37.413418" PMx_abs="5.715896" NOx_abs="171.781914" fuel_abs="146035.836620" electricity_abs="0"/>
    </tripinfo>
    <tripinfo id="193" depart="240.00" departLane="road_0_1_0_0" departPos="5.10" departSpeed="0.00" departDelay="0.00" arrival="384.00" arrivalLane="road_1_1_3_0" arrivalPos="586.40" arrivalSpeed="9.66" duration="144.00" routeLength="1376.73" waitingTime="0.00" waitingCount="0" stopTime="0.00" timeLoss="12.03" rerouteNo="0" devices="tripinfo_193 emissions_193" vType="DEFAULT_VEHTYPE" speedFactor="0.95" vaporized="">
        <emissions CO_abs="4168.785575" CO2_abs="303884.850972" HC_abs="25.846311" PMx_abs="3.841997" NOx_abs="114.467960" fuel_abs="96926.715535" electricity_abs="0"/>
    </tripinfo>
    <tripinfo id="46" depart="52.00" departLane="road_0_4_0_0" departPos="5.10" departSpeed="0.00" departDelay="0.00" arrival="386.00" arrivalLane="road_2_4_1_0" arrivalPos="586.40" arrivalSpeed="10.14" duration="334.00" routeLength="2197.72" waitingTime="83.00" waitingCount="2" stopTime="0.00" timeLoss="119.02" rerouteNo="2" devices="tripinfo_46 emissions_46" vType="DEFAULT_VEHTYPE@46" speedFactor="0.92" vaporized="">
        <emissions CO_abs="23234.274931" CO2_abs="750727.930666" HC_abs="122.958329" PMx_abs="12.661728" NOx_abs="304.319149" fuel_abs="239455.729007" electricity_abs="0"/>
    </tripinfo>