<?xml version="1.0" encoding="UTF-8"?>

<!-- generated on 2026-01-27 00:44:34 by Eclipse SUMO sumo Version 1.22.0
<sumoConfiguration xmlns:xsi="http://www.w3.org/2001/XMLSchema-instance" xsi:noNamespaceSchemaLocation="http://sumo.dlr.de/xsd/sumoConfiguration.xsd">

    <input>
        <net-file value="./res/hangzhou/4_Phase.net.xml"/>
        <route-files value="./res/hangzhou/uniform_4200.rou.xml"/>
    </input>

    <output>
        <tripinfo-output value="./res/hangzhou/tripinfo_output_route.xml"/>
    </output>

    <time>
        <begin value="0"/>
        <end value="1800"/>
    </time>

    <traci_server>
        <remote-port value="49734"/>
    </traci_server>

    <gui_only>
        <start value="true"/>
    </gui_only>

</sumoConfiguration>
-->

<tripinfos xmlns:xsi="http://www.w3.org/2001/XMLSchema-instance" xsi:noNamespaceSchemaLocation="http://sumo.dlr.de/xsd/tripinfo_file.xsd">
    <tripinfo id="1.10" depart="20.00" departLane="road_5_1_2_0" departPos="5.10" departSpeed="0.00" departDelay="0.00" arrival="231.00" arrivalLane="road_4_1_3_0" arrivalPos="586.40" arrivalSpeed="11.30" duration="211.00" routeLength="1397.55" waitingTime="80.00" waitingCount="1" stopTime="0.00" timeLoss="95.08" rerouteNo="0" devices="tripinfo_1.10" vType="DEFAULT_VEHTYPE" speedFactor="1.09" vaporized=""/>
    <tripinfo id="1.21" depart="42.00" departLane="road_0_4_0_0" departPos="5.10" departSpeed="0.00" departDelay="0.00" arrival="235.00" arrivalLane="road_1_4_1_0" arrivalPos="586.40" arrivalSpeed="9.94" duration="193.00" routeLength="1397.55" waitingTime="52.00" waitingCount="1" stopTime="0.00" timeLoss="68.36" rerouteNo="0" devices="tripinfo_1.21" vType="DEFAULT_VEHTYPE" speedFactor="1.01" vaporized=""/>
    <tripinfo id="1.17" depart="34.00" departLane="road_2_0_1_0" departPos="5.10" departSpeed="0.00" departDelay="0.00" arrival="240.00" arrivalLane="road_3_1_3_0" arrivalPos="586.40" arrivalSpeed="9.28" duration="206.00" routeLength="1958.56" waitingTime="0.00" waitingCount="0" stopTime="0.00" timeLoss="16.57" rerouteNo="0" devices="tripinfo_1.17" vType="DEFAULT_VEHTYPE" speedFactor="0.94" vaporized=""/>
    <tripinfo id="1.15" depart="30.00" departLane="road_5_1_2_0" departPos="5.10" departSpeed="0.00" departDelay="0.00" arrival="243.00" arrivalLane="road_4_1_3_0" arrivalPos="586.40" arrivalSpeed="9.58" duration="213.00" routeLength="1397.55" waitingTime="61.00" waitingCount="1" stopTime="0.00" timeLoss="76.75" rerouteNo="0" devices="tripinfo_1.15" vType="DEFAULT_VEHTYPE" speedFactor="0.93" vaporized=""/>
    <tripinfo id="1.7" depart="14.00" departLane="road_4_0_1_0" departPos="5.10" departSpeed="0.00" departDelay="0.00" arrival="262.00" arrivalLane="road_3_1_3_0" arrivalPos="586.40" arrivalSpeed="9.49" duration="248.00" routeLength="1994.86" waitingTime="25.00" waitingCount="1" stopTime="0.00" timeLoss="44.78" rerouteNo="0" devices="tripinfo_1.7" vType="DEFAULT_VEHTYPE" speedFactor="0.89" vaporized=""/>
    <tripinfo id="1.13" depart="26.00" departLane="road_0_2_0_0" departPos="5.10" departSpeed="0.00" departDelay="0.00" arrival="265.00" arrivalLane="road_1_1_3_0" arrivalPos="586.40" arrivalSpeed="11.45" duration="239.00" routeLength="1979.60" waitingTime="62.00" waitingCount="1" stopTime="0.00" timeLoss="79.12" rerouteNo="0" devices="tripinfo_1.13" vType="DEFAULT_VEHTYPE" speedFactor="1.12" vaporized=""/>
    <tripinfo id="1.44" depart="88.00" departLane="road_0_2_0_0" departPos="5.10" departSpeed="0.00" departDelay="0.00" arrival="290.00" arrivalLane="road_1_1_2_0" arrivalPos="786.40" arrivalSpeed="10.52" duration="202.00" routeLength="2158.56" waitingTime="0.00" waitingCount="0" stopTime="0.00" timeLoss="14.42" rerouteNo="0" devices="tripinfo_1.44" vType="DEFAULT_VEHTYPE" speedFactor="1.04" vaporized=""/>
    <tripinfo id="1.22" depart="44.00" departLane="road_0_2_0_0" departPos="5.10" departSpeed="0.00" departDelay="0.00" arrival="326.00" arrivalLane="road_1_3_2_0" arrivalPos="786.40" arrivalSpeed="10.67" duration="282.00" routeLength="2194.86" waitingTime="55.00" waitingCount="2" stopTime="0.00" timeLoss="79.10" rerouteNo="0" devices="tripinfo_1.22" vType="DEFAULT_VEHTYPE" speedFactor="0.97" vaporized=""/>
    <tripinfo id="1.73" depart="146.00" departLane="road_3_0_1_0" departPos="5.10" departSpeed="0.00" departDelay="0.00" arrival="328.00" arrivalLane="road_4_1_3_0" arrivalPos="586.40" arrivalSpeed="11.44" duration="182.00" routeLength="1958.56" waitingTime="0.00" waitingCount="0" stopTime="0.00" timeLoss="13.50" rerouteNo="0" devices="tripinfo_1.73" vType="DEFAULT_VEHTYPE" speedFactor="1.06" vaporized=""/>
    <tripinfo id="1.65" depart="130.00" departLane="road_1_0_1_0" departPos="5.10" departSpeed="0.00" departDelay="0.00" arrival="336.00" arrivalLane="road_1_1_2_0" arrivalPos="786.40" arrivalSpeed="8.99" duration="206.00" routeLength="1397.55" waitingTime="47.00" waitingCount="1" stopTime="0.00" timeLoss="63.31" rerouteNo="0" devices="tripinfo_1.65" vType="DEFAULT_VEHTYPE" speedFactor="0.88" vaporized=""/>
    <tripinfo id="1.11" depart="22.00" departLane="road_1_5_3_0" departPos="5.10" departSpeed="0.00" departDelay="0.00" arrival="343.00" arrivalLane="road_1_2_2_0" arrivalPos="786.40" arrivalSpeed="10.43" duration="321.00" routeLength="2577.07" waitingTime="74.00" waitingCount="1" stopTime="0.00" timeLoss="94.07" rerouteNo="0" devices="tripinfo_1.11" vType="DEFAULT_VEHTYPE" speedFactor="1.03" vaporized=""/>
    <tripinfo id="1.107" depart="214.00" departLane="road_5_4_2_0" departPos="5.10" departSpeed="0.00" departDelay="0.00" arrival="346.00" arrivalLane="road_4_4_1_0" arrivalPos="586.40" arrivalSpeed="11.17" duration="132.00" routeLength="1376.73" waitingTime="0.00" waitingCount="0" stopTime="0.00" timeLoss="11.24" rerouteNo="0" devices="tripinfo_1.107" vType="DEFAULT_VEHTYPE" speedFactor="1.03" vaporized=""/>
    <tripinfo id="1.31" depart="62.00" departLane="road_3_0_1_0" departPos="5.10" departSpeed="0.00" departDelay="0.00" arrival="349.00" arrivalLane="road_4_1_0_0" arrivalPos="786.40" arrivalSpeed="11.56" duration="287.00" routeLength="2179.60" waitingTime="99.00" waitingCount="1" stopTime="0.00" timeLoss="116.59" rerouteNo="0" devices="tripinfo_1.31" vType="DEFAULT_VEHTYPE" speedFactor="1.15" vaporized=""/>
    <tripinfo id="1.49" depart="99.00" departLane="road_5_4_2_0" departPos="5.10" departSpeed="0.00" departDelay="1.00" arrival="351.00" arrivalLane="road_4_3_0_0" arrivalPos="786.40" arrivalSpeed="8.77" duration="252.00" routeLength="2194.86" waitingTime="0.00" waitingCount="0" stopTime="0.00" timeLoss="18.94" rerouteNo="0" devices="tripinfo_1.49" vType="DEFAULT_VEHTYPE" speedFactor="0.85" vaporized=""/>
    <tripinfo id="1.79" depart="158.00" departLane="road_0_4_0_0" departPos="5.10" departSpeed="0.00" departDelay="0.00" arrival="353.00" arrivalLane="road_1_3_2_0" arrivalPos="786.40" arrivalSpeed="11.05" duration="195.00" routeLength="2158.56" waitingTime="0.00" waitingCount="0" stopTime="0.00" timeLoss="14.97" rerouteNo="0" devices="tripinfo_1.79" vType="DEFAULT_VEHTYPE" speedFactor="1.09" vaporized=""/>
    <tripinfo id="1.1" depart="2.00" departLane="road_1_0_1_0" departPos="5.10" departSpeed="0.00" departDelay="0.00" arrival="356.00" arrivalLane="road_1_3_2_0" arrivalPos="786.40" arrivalSpeed="10.34" duration="354.00" routeLength="2597.89" waitingTime="79.00" waitingCount="2" stopTime="0.00" timeLoss="104.10" rerouteNo="0" devices="tripinfo_1.1" vType="DEFAULT_VEHTYPE" speedFactor="0.94" vaporized=""/>
    <tripinfo id="1.4" depart="8.00" departLane="road_2_0_1_0" departPos="5.10" departSpeed="0.00" departDelay="0.00" arrival="357.00" arrivalLane="road_1_1_2_0" arrivalPos="786.40" arrivalSpeed="10.46" duration="349.00" routeLength="2195.01" waitingTime="134.00" waitingCount="2" stopTime="0.00" timeLoss="156.90" rerouteNo="0" devices="tripinfo_1.4" vType="DEFAULT_VEHTYPE" speedFactor="1.03" vaporized=""/>
    <tripinfo id="1.25" depart="50.00" departLane="road_1_5_3_0" departPos="5.10" departSpeed="0.00" departDelay="0.00" arrival="368.00" arrivalLane="road_1_3_2_0" arrivalPos="786.40" arrivalSpeed="8.56" duration="318.00" routeLength="1976.90" waitingTime="91.00" waitingCount="1" stopTime="0.00" timeLoss="112.46" rerouteNo="0" devices="tripinfo_1.25" vType="DEFAULT_VEHTYPE" speedFactor="0.87" vaporized=""/>
    <tripinfo id="1.51" depart="102.00" departLane="road_4_0_1_0" departPos="5.10" departSpeed="0.00" departDelay="0.00" arrival="368.00" arrivalLane="road_3_1_3_0" arrivalPos="586.40" arrivalSpeed="11.88" duration="266.00" routeLength="1994.86" waitingTime="90.00" waitingCount="1" stopTime="0.00" timeLoss="111.42" rerouteNo="0" devices="tripinfo_1.51" vType="DEFAULT_VEHTYPE" speedFactor="1.17" vaporized=""/>
    <tripinfo id="1.53" depart="106.00" departLane="road_0_2_0_0" departPos="5.10" departSpeed="0.00" departDelay="0.00" arrival="373.00" arrivalLane="road_2_1_3_0" arrivalPos="586.40" arrivalSpeed="11.17" duration="267.00" routeLength="2766.75" waitingTime="8.00" waitingCount="1" stopTime="0.00" timeLoss="38.37" rerouteNo="0" devices="tripinfo_1.53" vType="DEFAULT_VEHTYPE" speedFactor="1.10" vaporized=""/>
    <tripinfo id="1.19" depart="39.00" departLane="road_5_2_2_0" departPos="5.10" departSpeed="0.00" departDelay="1.00" arrival="377.00" arrivalLane="road_3_4_1_0" arrivalPos="586.40" arrivalSpeed="12.51" duration="338.00" routeLength="3364.08" waitingTime="50.00" waitingCount="1" stopTime="0.00" timeLoss="74.90" rerouteNo="0" devices="tripinfo_1.19" vType="DEFAULT_VEHTYPE" speedFactor="1.16" vaporized=""/>
    <tripinfo id="1.34" depart="68.00" departLane="road_1_5_3_0" departPos="5.10" departSpeed="0.00" departDelay="0.00" arrival="379.00" arrivalLane="road_1_4_1_1" arrivalPos="586.40" arrivalSpeed="10.25" duration="311.00" routeLength="2789.59" waitingTime="31.00" waitingCount="1" stopTime="0.00" timeLoss="56.65" rerouteNo="0" devices="tripinfo_1.34" vType="DEFAULT_VEHTYPE" speedFactor="0.99" vaporized=""/>
    <tripinfo id="1.74" depart="148.00" departLane="road_0_4_0_0" departPos="5.10" departSpeed="0.00" departDelay="0.00" arrival="379.00" arrivalLane="road_1_4_1_0" arrivalPos="586.40" arrivalSpeed="9.73" duration="231.00" routeLength="1397.55" waitingTime="83.00" waitingCount="1" stopTime="0.00" timeLoss="98.79" rerouteNo="0" devices="tripinfo_1.74" vType="DEFAULT_VEHTYPE" speedFactor="0.96" vaporized=""/>
    <tripinfo id="1.108" depart="216.00" departLane="road_3_0_1_0" departPos="5.10" departSpeed="0.00" departDelay="0.00" arrival="397.00" arrivalLane="road_4_1_3_0" arrivalPos="586.40" arrivalSpeed="10.79" duration="181.00" routeLength="1958.56" waitingTime="0.00" waitingCount="0" stopTime="0.00" timeLoss="14.12" rerouteNo="0" devices="tripinfo_1.108" vType="DEFAULT_VEHTYPE" speedFactor="1.06" vaporized=""/>
    <tripinfo id="1.47" depart="94.00" departLane="road_0_2_0_0" departPos="5.10" departSpeed="0.00" departDelay="0.00" arrival="403.00" arrivalLane="road_2_1_3_0" arrivalPos="586.40" arrivalSpeed="9.47" duration="309.00" routeLength="2766.75" waitingTime="2.00" waitingCount="1" stopTime="0.00" timeLoss="30.69" rerouteNo="0" devices="tripinfo_1.47" vType="DEFAULT_VEHTYPE" speedFactor="0.90" vaporized=""/>
    <tripinfo id="1.14" depart="28.00" departLane="road_5_2_2_0" departPos="5.10" departSpeed="0.00" departDelay="0.00" arrival="408.00" arrivalLane="road_3_4_1_0" arrivalPos="586.40" arrivalSpeed="10.75" duration="380.00" routeLength="3364.08" waitingTime="45.00" waitingCount="1" stopTime="0.00" timeLoss="73.42" rerouteNo="0" devices="tripinfo_1.14" vType="DEFAULT_VEHTYPE" speedFactor="0.99" vaporized=""/>
    <tripinfo id="1.66" depart="132.00" departLane="road_5_3_2_0" departPos="5.10" departSpeed="0.00" departDelay="0.00" arrival="419.00" arrivalLane="road_4_4_1_1" arrivalPos="586.40" arrivalSpeed="9.47" duration="287.00" routeLength="1979.60" waitingTime="69.00" waitingCount="1" stopTime="0.00" timeLoss="89.16" rerouteNo="0" devices="tripinfo_1.66" vType="DEFAULT_VEHTYPE" speedFactor="0.91" vaporized=""/>
    <tripinfo id="1.127" depart="254.00" departLane="road_5_4_2_0" departPos="5.10" departSpeed="0.00" departDelay="0.00" arrival="419.00" arrivalLane="road_4_4_1_0" arrivalPos="586.40" arrivalSpeed="8.89" duration="165.00" routeLength="1376.73" waitingTime="0.00" waitingCount="0" stopTime="0.00" timeLoss="13.18" rerouteNo="0" devices="tripinfo_1.127" vType="DEFAULT_VEHTYPE" speedFactor="0.82" vaporized=""/>
    <tripinfo id="1.29" depart="59.00" departLane="road_0_3_0_0" departPos="5.10" departSpeed="0.00" departDelay="1.00" arrival="420.00" arrivalLane="road_2_1_3_0" arrivalPos="586.40" arrivalSpeed="9.38" duration="361.00" routeLength="3364.08" waitingTime="4.00" waitingCount="1" stopTime="0.00" timeLoss="33.98" rerouteNo="0" devices="tripinfo_1.29" vType="DEFAULT_VEHTYPE" speedFactor="0.93" vaporized=""/>
    <tripinfo id="1.109" depart="218.00" departLane="road_0_3_0_0" departPos="5.10" departSpeed="0.00" departDelay="0.00" arrival="437.00" arrivalLane="road_1_4_1_0" arrivalPos="586.40" arrivalSpeed="9.68" duration="219.00" routeLength="1995.01" waitingTime="15.00" waitingCount="1" stopTime="0.00" timeLoss="31.66" rerouteNo="0" devices="tripinfo_1.109" vType="DEFAULT_VEHTYPE" speedFactor="0.96" vaporized=""/>
    <tripinfo id="1.111" depart="222.00" departLane="road_3_0_1_0" departPos="5.10" departSpeed="0.00" departDelay="0.00" arrival="446.00" arrivalLane="road_4_1_3_0" arrivalPos="586.40" arrivalSpeed="9.06" duration="224.00" routeLength="1958.56" waitingTime="0.00" waitingCount="0" stopTime="0.00" timeLoss="18.42" rerouteNo="0" devices="tripinfo_1.111" vType="DEFAULT_VEHTYPE" speedFactor="0.87" vaporized=""/>
    <tripinfo id="1.110" depart="220.00" departLane="road_5_4_2_0" departPos="5.10" departSpeed="0.00" departDelay="0.00" arrival="450.00" arrivalLane="road_3_4_1_0" arrivalPos="586.40" arrivalSpeed="9.31" duration="230.00" routeLength="2176.90" waitingTime="0.00" waitingCount="0" stopTime="0.00" timeLoss="18.10" rerouteNo="0" devices="tripinfo_1.110" vType="DEFAULT_VEHTYPE" speedFactor="0.93" vaporized=""/>
    <tripinfo id="1.99" depart="198.00" departLane="road_5_4_2_0" departPos="5.10" departSpeed="0.00" departDelay="0.00" arrival="458.00" arrivalLane="road_4_3_0_0" arrivalPos="786.40" arrivalSpeed="11.82" duration="260.00" routeLength="2194.86" waitingTime="54.00" waitingCount="2" stopTime="0.00" timeLoss="79.32" rerouteNo="0" devices="tripinfo_1.99" vType="DEFAULT_VEHTYPE" speedFactor="1.10" vaporized=""/>
    <tripinfo id="1.100" depart="201.00" departLane="road_5_4_2_0" departPos="5.10" departSpeed="0.00" departDelay="1.00" arrival="458.00" arrivalLane="road_4_4_0_0" arrivalPos="786.40" arrivalSpeed="11.81" duration="257.00" routeLength="2789.59" waitingTime="0.00" waitingCount="0" stopTime="0.00" timeLoss="19.48" rerouteNo="0" devices="tripinfo_1.100" vType="DEFAULT_VEHTYPE" speedFactor="1.06" vaporized=""/>
    <tripinfo id="1.6" depart="12.00" departLane="road_0_1_0_0" departPos="5.10" departSpeed="0.00" departDelay="0.00" arrival="462.00" arrivalLane="road_1_3_2_0" arrivalPos="786.40" arrivalSpeed="10.41" duration="450.00" routeLength="2797.66" waitingTime="183.00" waitingCount="2" stopTime="0.00" timeLoss="208.80" rerouteNo="0" devices="tripinfo_1.6" vType="DEFAULT_VEHTYPE" speedFactor="1.05" vaporized=""/>
    <tripinfo id="1.128" depart="256.00" departLane="road_0_2_0_0" departPos="5.10" departSpeed="0.00" departDelay="0.00" arrival="462.00" arrivalLane="road_1_3_2_1" arrivalPos="786.40" arrivalSpeed="11.30" duration="206.00" routeLength="2194.86" waitingTime="6.00" waitingCount="1" stopTime="0.00" timeLoss="28.29" rerouteNo="0" devices="tripinfo_1.128" vType="DEFAULT_VEHTYPE" speedFactor="1.12" vaporized=""/>
    <tripinfo id="1.130" depart="260.00" departLane="road_5_3_2_0" departPos="5.10" departSpeed="0.00" departDelay="0.00" arrival="464.00" arrivalLane="road_4_4_0_0" arrivalPos="786.40" arrivalSpeed="11.08" duration="204.00" routeLength="2158.56" waitingTime="0.00" waitingCount="0" stopTime="0.00" timeLoss="14.02" rerouteNo="0" devices="tripinfo_1.130" vType="DEFAULT_VEHTYPE" speedFactor="1.03" vaporized=""/>
    <tripinfo id="1.33" depart="66.00" departLane="road_0_4_0_0" departPos="5.10" departSpeed="0.00" departDelay="0.00" arrival="466.00" arrivalLane="road_1_1_2_0" arrivalPos="786.40" arrivalSpeed="12.70" duration="400.00" routeLength="3361.60" waitingTime="112.00" waitingCount="2" stopTime="0.00" timeLoss="140.94" rerouteNo="0" devices="tripinfo_1.33" vType="DEFAULT_VEHTYPE" speedFactor="1.17" vaporized=""/>
    <tripinfo id="1.84" depart="169.00" departLane="road_0_4_0_0" departPos="5.10" departSpeed="0.00" departDelay="1.00" arrival="468.00" arrivalLane="road_1_2_2_0" arrivalPos="786.40" arrivalSpeed="11.66" duration="299.00" routeLength="2761.43" waitingTime="60.00" waitingCount="1" stopTime="0.00" timeLoss="81.17" rerouteNo="0" devices="tripinfo_1.84" vType="DEFAULT_VEHTYPE" speedFactor="1.15" vaporized=""/>
    <tripinfo id="1.30" depart="60.00" departLane="road_5_4_2_0" departPos="5.10" departSpeed="0.00" departDelay="0.00" arrival="469.00" arrivalLane="road_4_1_0_0" arrivalPos="786.40" arrivalSpeed="12.57" duration="409.00" routeLength="3397.83" waitingTime="121.00" waitingCount="2" stopTime="0.00" timeLoss="149.21" rerouteNo="0" devices="tripinfo_1.30" vType="DEFAULT_VEHTYPE" speedFactor="1.18" vaporized=""/>
    <tripinfo id="1.77" depart="154.00" departLane="road_0_2_0_0" departPos="5.10" departSpeed="0.00" departDelay="0.00" arrival="469.00" arrivalLane="road_1_3_2_0" arrivalPos="786.40" arrivalSpeed="10.33" duration="315.00" routeLength="2194.86" waitingTime="88.00" waitingCount="2" stopTime="0.00" timeLoss="112.88" rerouteNo="0" devices="tripinfo_1.77" vType="DEFAULT_VEHTYPE" speedFactor="0.98" vaporized=""/>
    <tripinfo id="1.57" depart="114.00" departLane="road_5_3_2_0" departPos="5.10" departSpeed="0.00" departDelay="0.00" arrival="470.00" arrivalLane="road_4_3_0_0" arrivalPos="786.40" arrivalSpeed="11.45" duration="356.00" routeLength="3987.09" waitingTime="11.00" waitingCount="1" stopTime="0.00" timeLoss="40.19" rerouteNo="0" devices="tripinfo_1.57" vType="DEFAULT_VEHTYPE" speedFactor="1.14" vaporized=""/>
    <tripinfo id="1.102" depart="204.00" departLane="road_2_5_3_0" departPos="5.10" departSpeed="0.00" departDelay="0.00" arrival="482.00" arrivalLane="road_1_3_2_0" arrivalPos="786.40" arrivalSpeed="10.61" duration="278.00" routeLength="2766.75" waitingTime="0.00" waitingCount="0" stopTime="0.00" timeLoss="19.91" rerouteNo="0" devices="tripinfo_1.102" vType="DEFAULT_VEHTYPE" speedFactor="0.97" vaporized=""/>
    <tripinfo id="1.2" depart="4.00" departLane="road_4_5_3_0" departPos="5.10" departSpeed="0.00" departDelay="0.00" arrival="486.00" arrivalLane="road_4_1_0_0" arrivalPos="786.40" arrivalSpeed="10.63" duration="482.00" routeLength="3198.06" waitingTime="163.00" waitingCount="3" stopTime="0.00" timeLoss="196.54" rerouteNo="0" devices="tripinfo_1.2" vType="DEFAULT_VEHTYPE" speedFactor="1.01" vaporized=""/>
    <tripinfo id="1.32" depart="64.00" departLane="road_5_2_2_0" departPos="5.10" departSpeed="0.00" departDelay="0.00" arrival="488.00" arrivalLane="road_4_2_0_0" arrivalPos="786.40" arrivalSpeed="10.28" duration="424.00" routeLength="3981.68" waitingTime="31.00" waitingCount="1" stopTime="0.00" timeLoss="65.23" rerouteNo="0" devices="tripinfo_1.32" vType="DEFAULT_VEHTYPE" speedFactor="1.01" vaporized=""/>
    <tripinfo id="1.41" depart="82.00" departLane="road_3_5_3_0" departPos="5.10" departSpeed="0.00" departDelay="0.00" arrival="502.00" arrivalLane="road_4_4_0_0" arrivalPos="786.40" arrivalSpeed="10.50" duration="420.00" routeLength="2195.01" waitingTime="190.00" waitingCount="2" stopTime="0.00" timeLoss="213.40" rerouteNo="0" devices="tripinfo_1.41" vType="DEFAULT_VEHTYPE" speedFactor="0.96" vaporized=""/>
    <tripinfo id="1.152" depart="304.00" departLane="road_0_3_0_0" departPos="5.10" departSpeed="0.00" departDelay="0.00" arrival="502.00" arrivalLane="road_1_2_2_0" arrivalPos="786.40" arrivalSpeed="11.00" duration="198.00" routeLength="2158.56" waitingTime="0.00" waitingCount="0" stopTime="0.00" timeLoss="15.00" rerouteNo="0" devices="tripinfo_1.152" vType="DEFAULT_VEHTYPE" speedFactor="1.07" vaporized=""/>
    <tripinfo id="1.103" depart="206.00" departLane="road_2_0_1_0" departPos="5.10" departSpeed="0.00" departDelay="0.00" arrival="504.00" arrivalLane="road_1_1_2_0" arrivalPos="786.40" arrivalSpeed="9.94" duration="298.00" routeLength="2195.01" waitingTime="69.00" waitingCount="1" stopTime="0.00" timeLoss="89.81" rerouteNo="0" devices="tripinfo_1.103" vType="DEFAULT_VEHTYPE" speedFactor="0.95" vaporized=""/>
    <tripinfo id="1.37" depart="74.00" departLane="road_4_0_1_0" departPos="5.10" departSpeed="0.00" departDelay="0.00" arrival="507.00" arrivalLane="road_2_1_3_0" arrivalPos="586.40" arrivalSpeed="12.36" duration="433.00" routeLength="2797.66" waitingTime="191.00" waitingCount="2" stopTime="0.00" timeLoss="219.19" rerouteNo="0" devices="tripinfo_1.37" vType="DEFAULT_VEHTYPE" speedFactor="1.18" vaporized=""/>
    <tripinfo id="1.61" depart="123.00" departLane="road_5_1_2_0" departPos="5.10" departSpeed="0.00" departDelay="1.00" arrival="510.00" arrivalLane="road_3_1_3_0" arrivalPos="586.40" arrivalSpeed="11.42" duration="387.00" routeLength="2197.72" waitingTime="186.00" waitingCount="2" stopTime="0.00" timeLoss="209.45" rerouteNo="0" devices="tripinfo_1.61" vType="DEFAULT_VEHTYPE" speedFactor="1.12" vaporized=""/>
    <tripinfo id="1.94" depart="188.00" departLane="road_0_4_0_0" departPos="5.10" departSpeed="0.00" departDelay="0.00" arrival="511.00" arrivalLane="road_2_4_1_0" arrivalPos="586.40" arrivalSpeed="11.84" duration="323.00" routeLength="2197.72" waitingTime="119.00" waitingCount="2" stopTime="0.00" timeLoss="141.30" rerouteNo="0" devices="tripinfo_1.94" vType="DEFAULT_VEHTYPE" speedFactor="1.09" vaporized=""/>
    <tripinfo id="1.60" depart="120.00" departLane="road_5_1_2_0" departPos="5.10" departSpeed="0.00" departDelay="0.00" arrival="513.00" arrivalLane="road_3_1_3_0" arrivalPos="586.40" arrivalSpeed="11.76" duration="393.00" routeLength="2197.72" waitingTime="185.00" waitingCount="2" stopTime="0.00" timeLoss="209.79" rerouteNo="0" devices="tripinfo_1.60" vType="DEFAULT_VEHTYPE" speedFactor="1.08" vaporized=""/>
    <tripinfo id="1.46" depart="92.00" departLane="road_5_1_2_0" departPos="5.10" departSpeed="0.00" departDelay="0.00" arrival="518.00" arrivalLane="road_2_1_3_0" arrivalPos="586.40" arrivalSpeed="10.05" duration="426.00" routeLength="2997.89" waitingTime="124.00" waitingCount="2" stopTime="0.00" timeLoss="155.38" rerouteNo="0" devices="tripinfo_1.46" vType="DEFAULT_VEHTYPE" speedFactor="1.00" vaporized=""/>
    <tripinfo id="1.133" depart="266.00" departLane="road_3_5_3_0" departPos="5.10" departSpeed="0.00" departDelay="0.00" arrival="518.00" arrivalLane="road_4_4_1_0" arrivalPos="586.40" arrivalSpeed="10.71" duration="252.00" routeLength="1994.86" waitingTime="62.00" waitingCount="1" stopTime="0.00" timeLoss="78.50" rerouteNo="0" devices="tripinfo_1.133" vType="DEFAULT_VEHTYPE" speedFactor="1.04" vaporized=""/>
    <tripinfo id="1.8" depart="16.00" departLane="road_0_4_0_0" departPos="5.10" departSpeed="0.00" departDelay="0.00" arrival="520.00" arrivalLane="road_3_4_1_0" arrivalPos="586.40" arrivalSpeed="9.92" duration="504.00" routeLength="2997.89" waitingTime="181.00" waitingCount="3" stopTime="0.00" timeLoss="215.53" rerouteNo="0" devices="tripinfo_1.8" vType="DEFAULT_VEHTYPE" speedFactor="0.94" vaporized=""/>
    <tripinfo id="1.88" depart="176.00" departLane="road_0_2_0_0" departPos="5.10" departSpeed="0.00" departDelay="0.00" arrival="523.00" arrivalLane="road_2_1_3_0" arrivalPos="586.40" arrivalSpeed="11.17" duration="347.00" routeLength="2766.75" waitingTime="75.00" waitingCount="1" stopTime="0.00" timeLoss="98.47" rerouteNo="0" devices="tripinfo_1.88" vType="DEFAULT_VEHTYPE" speedFactor="1.01" vaporized=""/>
    <tripinfo id="1.85" depart="170.00" departLane="road_5_3_2_0" departPos="5.10" departSpeed="0.00" departDelay="0.00" arrival="527.00" arrivalLane="road_3_4_1_0" arrivalPos="586.40" arrivalSpeed="9.74" duration="357.00" routeLength="2766.75" waitingTime="76.00" waitingCount="1" stopTime="0.00" timeLoss="100.01" rerouteNo="0" devices="tripinfo_1.85" vType="DEFAULT_VEHTYPE" speedFactor="0.98" vaporized=""/>
    <tripinfo id="1.18" depart="36.00" departLane="road_5_2_2_0" departPos="5.10" departSpeed="0.00" departDelay="0.00" arrival="533.00" arrivalLane="road_3_4_1_0" arrivalPos="586.40" arrivalSpeed="9.98" duration="497.00" routeLength="3364.08" waitingTime="137.00" waitingCount="2" stopTime="0.00" timeLoss="171.70" rerouteNo="0" devices="tripinfo_1.18" vType="DEFAULT_VEHTYPE" speedFactor="0.94" vaporized=""/>
    <tripinfo id="1.43" depart="86.00" departLane="road_5_4_2_0" departPos="5.10" departSpeed="0.00" departDelay="0.00" arrival="542.00" arrivalLane="road_3_1_3_0" arrivalPos="586.40" arrivalSpeed="11.04" duration="456.00" routeLength="3985.20" waitingTime="76.00" waitingCount="2" stopTime="0.00" timeLoss="109.21" rerouteNo="0" devices="tripinfo_1.43" vType="DEFAULT_VEHTYPE" speedFactor="1.04" vaporized=""/>
    <tripinfo id="1.167" depart="334.00" departLane="road_5_2_2_0" departPos="5.10" departSpeed="0.00" departDelay="0.00" arrival="542.00" arrivalLane="road_4_3_0_0" arrivalPos="786.40" arrivalSpeed="10.97" duration="208.00" routeLength="2158.56" waitingTime="0.00" waitingCount="0" stopTime="0.00" timeLoss="17.67" rerouteNo="0" devices="tripinfo_1.167" vType="DEFAULT_VEHTYPE" speedFactor="1.03" vaporized=""/>
    <tripinfo id="1.169" depart="338.00" departLane="road_2_5_3_0" departPos="5.10" departSpeed="0.00" departDelay="0.00" arrival="543.00" arrivalLane="road_1_4_1_0" arrivalPos="586.40" arrivalSpeed="9.70" duration="205.00" routeLength="1958.56" waitingTime="0.00" waitingCount="0" stopTime="0.00" timeLoss="16.19" rerouteNo="0" devices="tripinfo_1.169" vType="DEFAULT_VEHTYPE" speedFactor="0.94" vaporized=""/>
    <tripinfo id="1.38" depart="76.00" departLane="road_5_3_2_0" departPos="5.10" departSpeed="0.00" departDelay="0.00" arrival="544.00" arrivalLane="road_2_4_1_0" arrivalPos="586.40" arrivalSpeed="11.79" duration="468.00" routeLength="3564.21" waitingTime="145.00" waitingCount="2" stopTime="0.00" timeLoss="175.59" rerouteNo="0" devices="tripinfo_1.38" vType="DEFAULT_VEHTYPE" speedFactor="1.10" vaporized=""/>
    <tripinfo id="1.23" depart="47.00" departLane="road_0_2_0_0" departPos="5.10" departSpeed="0.00" departDelay="1.00" arrival="558.00" arrivalLane="road_1_4_1_0" arrivalPos="586.40" arrivalSpeed="8.66" duration="511.00" routeLength="2595.18" waitingTime="215.00" waitingCount="3" stopTime="0.00" timeLoss="247.57" rerouteNo="0" devices="tripinfo_1.23" vType="DEFAULT_VEHTYPE" speedFactor="0.89" vaporized=""/>
    <tripinfo id="1.132" depart="264.00" departLane="road_5_2_2_0" departPos="5.10" departSpeed="0.00" departDelay="0.00" arrival="579.00" arrivalLane="road_4_1_3_1" arrivalPos="586.40" arrivalSpeed="10.14" duration="315.00" routeLength="1995.01" waitingTime="106.00" waitingCount="1" stopTime="0.00" timeLoss="127.41" rerouteNo="0" devices="tripinfo_1.132" vType="DEFAULT_VEHTYPE" speedFactor="0.96" vaporized=""/>
    <tripinfo id="1.185" depart="370.00" departLane="road_3_0_1_0" departPos="5.10" departSpeed="0.00" departDelay="0.00" arrival="580.00" arrivalLane="road_4_1_3_0" arrivalPos="586.40" arrivalSpeed="9.12" duration="210.00" routeLength="1958.56" waitingTime="0.00" waitingCount="0" stopTime="0.00" timeLoss="16.49" rerouteNo="0" devices="tripinfo_1.185" vType="DEFAULT_VEHTYPE" speedFactor="0.92" vaporized=""/>
    <tripinfo id="1.20" depart="40.00" departLane="road_4_5_3_0" departPos="5.10" departSpeed="0.00" departDelay="0.00" arrival="590.00" arrivalLane="road_1_1_2_0" arrivalPos="786.40" arrivalSpeed="11.16" duration="550.00" routeLength="5546.79" waitingTime="10.00" waitingCount="2" stopTime="0.00" timeLoss="57.49" rerouteNo="0" devices="tripinfo_1.20" vType="DEFAULT_VEHTYPE" speedFactor="1.02" vaporized=""/>
    <tripinfo id="1.191" depart="382.00" departLane="road_1_0_1_0" departPos="5.10" departSpeed="0.00" departDelay="0.00" arrival="590.00" arrivalLane="road_2_1_3_0" arrivalPos="586.40" arrivalSpeed="10.28" duration="208.00" routeLength="1958.56" waitingTime="0.00" waitingCount="0" stopTime="0.00" timeLoss="16.77" rerouteNo="0" devices="tripinfo_1.191" vType="DEFAULT_VEHTYPE" speedFactor="0.93" vaporized=""/>
    <tripinfo id="1.59" depart="118.00" departLane="road_3_5_3_0" departPos="5.10" departSpeed="0.00" departDelay="0.00" arrival="594.00" arrivalLane="road_1_2_2_0" arrivalPos="786.40" arrivalSpeed="9.51" duration="476.00" routeLength="4156.77" waitingTime="54.00" waitingCount="1" stopTime="0.00" timeLoss="88.70" rerouteNo="0" devices="tripinfo_1.59" vType="DEFAULT_VEHTYPE" speedFactor="0.97" vaporized=""/>
    <tripinfo id="1.42" depart="84.00" departLane="road_2_0_1_0" departPos="5.10" departSpeed="0.00" departDelay="0.00" arrival="600.00" arrivalLane="road_1_3_2_0" arrivalPos="786.40" arrivalSpeed="11.95" duration="516.00" routeLength="3384.90" waitingTime="205.00" waitingCount="3" stopTime="0.00" timeLoss="235.96" rerouteNo="0" devices="tripinfo_1.42" vType="DEFAULT_VEHTYPE" speedFactor="1.09" vaporized=""/>
    <tripinfo id="1.86" depart="172.00" departLane="road_2_5_3_0" departPos="5.10" departSpeed="0.00" departDelay="0.00" arrival="604.00" arrivalLane="road_4_2_0_0" arrivalPos="786.40" arrivalSpeed="10.40" duration="432.00" routeLength="4177.59" waitingTime="20.00" waitingCount="2" stopTime="0.00" timeLoss="55.45" rerouteNo="0" devices="tripinfo_1.86" vType="DEFAULT_VEHTYPE" speedFactor="1.00" vaporized=""/>